LAMMPS data file via write_data, version 29 Aug 2024, timestep = 10000, units = real

5464 atoms
6 atom types

0 21.363 xlo xhi
0 19.735 ylo yhi
-50 50 zlo zhi

Masses

1 12
2 15.9994
3 1.008
4 1e-100
5 39.0983
6 18.998403

Atoms # full

1 0 1 0 7.833 3.7 -40 0 0 0
3 0 1 0 3.561 8.634 -40 0 0 0
43 0 1 0 3.561 8.634 -47.15932 0 0 0
41 0 1 0 7.833 3.7 -47.15932 0 0 0
23 0 1 0 3.561 8.634 -43.57966 0 0 0
21 0 1 0 7.833 3.7 -43.57966 0 0 0
104 0 1 0 4.985 6.167 -47.15932 0 0 0
102 0 1 0 9.257 1.233 -47.15932 0 0 0
101 0 1 0 0.712 1.233 -47.15932 0 0 0
84 0 1 0 4.985 6.167 -43.57966 0 0 0
82 0 1 0 9.257 1.233 -43.57966 0 0 0
81 0 1 0 0.712 1.233 -43.57966 0 0 0
68 0 1 0 4.985 6.167 -40 0 0 0
66 0 1 0 9.257 1.233 -40 0 0 0
65 0 1 0 0.712 1.233 -40 0 0 0
164 0 1 0 4.985 8.634 -47.15932 0 0 0
162 0 1 0 9.257 3.7 -47.15932 0 0 0
161 0 1 0 0.712 3.7 -47.15932 0 0 0
144 0 1 0 4.985 8.634 -43.57966 0 0 0
142 0 1 0 9.257 3.7 -43.57966 0 0 0
141 0 1 0 0.712 3.7 -43.57966 0 0 0
128 0 1 0 4.985 8.634 -40 0 0 0
126 0 1 0 9.257 3.7 -40 0 0 0
125 0 1 0 0.712 3.7 -40 0 0 0
226 0 1 0 2.848 9.867 -47.15932 0 0 0
224 0 1 0 7.121 4.934 -47.15932 0 0 0
221 0 1 0 2.848 0 -47.15932 0 0 0
206 0 1 0 2.848 9.867 -43.57966 0 0 0
204 0 1 0 7.121 4.934 -43.57966 0 0 0
201 0 1 0 2.848 0 -43.57966 0 0 0
189 0 1 0 2.848 9.867 -40 0 0 0
187 0 1 0 7.121 4.934 -40 0 0 0
184 0 1 0 2.848 0 -40 0 0 0
284 0 1 0 7.121 7.4 -47.15932 0 0 0
281 0 1 0 2.848 2.467 -47.15932 0 0 0
264 0 1 0 7.121 7.4 -43.57966 0 0 0
261 0 1 0 2.848 2.467 -43.57966 0 0 0
248 0 1 0 7.121 7.4 -40 0 0 0
245 0 1 0 2.848 2.467 -40 0 0 0
347 0 1 0 9.97 9.867 -47.15932 0 0 0
346 0 1 0 1.424 9.867 -47.15932 0 0 0
344 0 1 0 5.697 4.934 -47.15932 0 0 0
342 0 1 0 9.97 0 -47.15932 0 0 0
341 0 1 0 1.424 0 -47.15932 0 0 0
327 0 1 0 9.97 9.867 -43.57966 0 0 0
326 0 1 0 1.424 9.867 -43.57966 0 0 0
324 0 1 0 5.697 4.934 -43.57966 0 0 0
311 0 1 0 9.97 9.867 -40 0 0 0
310 0 1 0 1.424 9.867 -40 0 0 0
308 0 1 0 5.697 4.934 -40 0 0 0
306 0 1 0 9.97 0 -40 0 0 0
305 0 1 0 1.424 0 -40 0 0 0
303 0 1 0 9.97 0 -43.57966 0 0 0
302 0 1 0 1.424 0 -43.57966 0 0 0
361 0 1 0 5.697 7.4 -43.57966 0 0 0
404 0 1 0 5.697 7.4 -47.15932 0 0 0
402 0 1 0 9.97 2.467 -47.15932 0 0 0
401 0 1 0 1.424 2.467 -47.15932 0 0 0
385 0 1 0 9.97 2.467 -43.57966 0 0 0
384 0 1 0 1.424 2.467 -43.57966 0 0 0
367 0 1 0 5.697 7.4 -40 0 0 0
365 0 1 0 9.97 2.467 -40 0 0 0
364 0 1 0 1.424 2.467 -40 0 0 0
425 0 1 0 3.561 1.233 -40 0 0 0
464 0 1 0 7.833 6.167 -47.15932 0 0 0
461 0 1 0 3.561 1.233 -47.15932 0 0 0
428 0 1 0 7.833 6.167 -40 0 0 0
448 0 1 0 7.833 6.167 -43.57966 0 0 0
445 0 1 0 3.561 1.233 -43.57966 0 0 0
485 0 1 0 3.561 3.7 -40 0 0 0
524 0 1 0 7.833 8.634 -47.15932 0 0 0
488 0 1 0 7.833 8.634 -40 0 0 0
521 0 1 0 3.561 3.7 -47.15932 0 0 0
508 0 1 0 7.833 8.634 -43.57966 0 0 0
505 0 1 0 3.561 3.7 -43.57966 0 0 0
584 0 1 0 9.257 6.167 -47.15932 0 0 0
583 0 1 0 0.712 6.167 -47.15932 0 0 0
581 0 1 0 4.985 1.233 -47.15932 0 0 0
567 0 1 0 9.257 6.167 -43.57966 0 0 0
566 0 1 0 0.712 6.167 -43.57966 0 0 0
564 0 1 0 4.985 1.233 -43.57966 0 0 0
547 0 1 0 9.257 6.167 -40 0 0 0
546 0 1 0 0.712 6.167 -40 0 0 0
544 0 1 0 4.985 1.233 -40 0 0 0
644 0 1 0 9.257 8.634 -47.15932 0 0 0
643 0 1 0 0.712 8.634 -47.15932 0 0 0
628 0 1 0 9.257 8.634 -43.57966 0 0 0
627 0 1 0 0.712 8.634 -43.57966 0 0 0
625 0 1 0 4.985 3.7 -43.57966 0 0 0
608 0 1 0 9.257 8.634 -40 0 0 0
607 0 1 0 0.712 8.634 -40 0 0 0
605 0 1 0 4.985 3.7 -40 0 0 0
604 0 1 0 4.985 3.7 -47.15932 0 0 0
706 0 1 0 7.121 9.867 -47.15932 0 0 0
705 0 1 0 7.121 0 -47.15932 0 0 0
690 0 1 0 7.121 9.867 -43.57966 0 0 0
687 0 1 0 2.848 4.934 -43.57966 0 0 0
685 0 1 0 7.121 0 -43.57966 0 0 0
670 0 1 0 7.121 9.867 -40 0 0 0
667 0 1 0 2.848 4.934 -40 0 0 0
665 0 1 0 7.121 0 -40 0 0 0
662 0 1 0 2.848 4.934 -47.15932 0 0 0
767 0 1 0 2.848 7.4 -47.15932 0 0 0
765 0 1 0 7.121 2.467 -47.15932 0 0 0
747 0 1 0 2.848 7.4 -43.57966 0 0 0
745 0 1 0 7.121 2.467 -43.57966 0 0 0
727 0 1 0 2.848 7.4 -40 0 0 0
725 0 1 0 7.121 2.467 -40 0 0 0
830 0 1 0 5.697 9.867 -47.15932 0 0 0
828 0 1 0 9.97 4.934 -47.15932 0 0 0
827 0 1 0 1.424 4.934 -47.15932 0 0 0
825 0 1 0 5.697 0 -47.15932 0 0 0
810 0 1 0 5.697 9.867 -43.57966 0 0 0
808 0 1 0 9.97 4.934 -43.57966 0 0 0
807 0 1 0 1.424 4.934 -43.57966 0 0 0
805 0 1 0 5.697 0 -43.57966 0 0 0
790 0 1 0 5.697 9.867 -40 0 0 0
788 0 1 0 9.97 4.934 -40 0 0 0
787 0 1 0 1.424 4.934 -40 0 0 0
785 0 1 0 5.697 0 -40 0 0 0
888 0 1 0 9.97 7.4 -47.15932 0 0 0
887 0 1 0 1.424 7.4 -47.15932 0 0 0
885 0 1 0 5.697 2.467 -47.15932 0 0 0
868 0 1 0 9.97 7.4 -43.57966 0 0 0
867 0 1 0 1.424 7.4 -43.57966 0 0 0
865 0 1 0 5.697 2.467 -43.57966 0 0 0
848 0 1 0 9.97 7.4 -40 0 0 0
847 0 1 0 1.424 7.4 -40 0 0 0
845 0 1 0 5.697 2.467 -40 0 0 0
905 0 1 0 7.833 1.233 -40 0 0 0
907 0 1 0 3.561 6.167 -40 0 0 0
947 0 1 0 3.561 6.167 -47.15932 0 0 0
945 0 1 0 7.833 1.233 -47.15932 0 0 0
927 0 1 0 3.561 6.167 -43.57966 0 0 0
925 0 1 0 7.833 1.233 -43.57966 0 0 0
813 0 1 0 9.97 14.801 -43.57966 0 0 0
812 0 1 0 1.424 14.801 -43.57966 0 0 0
793 0 1 0 9.97 14.801 -40 0 0 0
850 0 1 0 5.697 12.334 -40 0 0 0
853 0 1 0 9.97 17.268 -40 0 0 0
893 0 1 0 9.97 17.268 -47.15932 0 0 0
873 0 1 0 9.97 17.268 -43.57966 0 0 0
870 0 1 0 5.697 12.334 -43.57966 0 0 0
892 0 1 0 1.424 17.268 -47.15932 0 0 0
910 0 1 0 7.833 11.101 -40 0 0 0
930 0 1 0 7.833 11.101 -43.57966 0 0 0
950 0 1 0 7.833 11.101 -47.15932 0 0 0
890 0 1 0 5.697 12.334 -47.15932 0 0 0
792 0 1 0 1.424 14.801 -40 0 0 0
932 0 1 0 3.561 16.034 -43.57966 0 0 0
912 0 1 0 3.561 16.034 -40 0 0 0
852 0 1 0 1.424 17.268 -40 0 0 0
952 0 1 0 3.561 16.034 -47.15932 0 0 0
872 0 1 0 1.424 17.268 -43.57966 0 0 0
48 0 1 0 3.561 18.501 -47.15932 0 0 0
46 0 1 0 7.833 13.568 -47.15932 0 0 0
6 0 1 0 7.833 13.568 -40 0 0 0
8 0 1 0 3.561 18.501 -40 0 0 0
28 0 1 0 3.561 18.501 -43.57966 0 0 0
26 0 1 0 7.833 13.568 -43.57966 0 0 0
109 0 1 0 4.985 16.034 -47.15932 0 0 0
107 0 1 0 9.257 11.101 -47.15932 0 0 0
106 0 1 0 0.712 11.101 -47.15932 0 0 0
89 0 1 0 4.985 16.034 -43.57966 0 0 0
87 0 1 0 9.257 11.101 -43.57966 0 0 0
86 0 1 0 0.712 11.101 -43.57966 0 0 0
69 0 1 0 4.985 16.034 -40 0 0 0
63 0 1 0 9.257 11.101 -40 0 0 0
62 0 1 0 0.712 11.101 -40 0 0 0
121 0 1 0 4.985 18.501 -40 0 0 0
169 0 1 0 4.985 18.501 -47.15932 0 0 0
167 0 1 0 9.257 13.568 -47.15932 0 0 0
166 0 1 0 0.712 13.568 -47.15932 0 0 0
149 0 1 0 4.985 18.501 -43.57966 0 0 0
147 0 1 0 9.257 13.568 -43.57966 0 0 0
146 0 1 0 0.712 13.568 -43.57966 0 0 0
131 0 1 0 9.257 13.568 -40 0 0 0
130 0 1 0 0.712 13.568 -40 0 0 0
229 0 1 0 7.121 14.801 -47.15932 0 0 0
209 0 1 0 7.121 14.801 -43.57966 0 0 0
192 0 1 0 7.121 14.801 -40 0 0 0
289 0 1 0 7.121 17.268 -47.15932 0 0 0
286 0 1 0 2.848 12.334 -47.15932 0 0 0
269 0 1 0 7.121 17.268 -43.57966 0 0 0
266 0 1 0 2.848 12.334 -43.57966 0 0 0
253 0 1 0 7.121 17.268 -40 0 0 0
250 0 1 0 2.848 12.334 -40 0 0 0
349 0 1 0 5.697 14.801 -47.15932 0 0 0
329 0 1 0 5.697 14.801 -43.57966 0 0 0
313 0 1 0 5.697 14.801 -40 0 0 0
409 0 1 0 5.697 17.268 -47.15932 0 0 0
407 0 1 0 9.97 12.334 -47.15932 0 0 0
406 0 1 0 1.424 12.334 -47.15932 0 0 0
389 0 1 0 5.697 17.268 -43.57966 0 0 0
387 0 1 0 9.97 12.334 -43.57966 0 0 0
372 0 1 0 5.697 17.268 -40 0 0 0
370 0 1 0 9.97 12.334 -40 0 0 0
369 0 1 0 1.424 12.334 -40 0 0 0
363 0 1 0 1.424 12.334 -43.57966 0 0 0
423 0 1 0 7.833 16.034 -43.57966 0 0 0
469 0 1 0 7.833 16.034 -47.15932 0 0 0
466 0 1 0 3.561 11.101 -47.15932 0 0 0
450 0 1 0 3.561 11.101 -43.57966 0 0 0
430 0 1 0 3.561 11.101 -40 0 0 0
433 0 1 0 7.833 16.034 -40 0 0 0
529 0 1 0 7.833 18.501 -47.15932 0 0 0
526 0 1 0 3.561 13.568 -47.15932 0 0 0
490 0 1 0 3.561 13.568 -40 0 0 0
493 0 1 0 7.833 18.501 -40 0 0 0
513 0 1 0 7.833 18.501 -43.57966 0 0 0
510 0 1 0 3.561 13.568 -43.57966 0 0 0
589 0 1 0 9.257 16.034 -47.15932 0 0 0
588 0 1 0 0.712 16.034 -47.15932 0 0 0
586 0 1 0 4.985 11.101 -47.15932 0 0 0
572 0 1 0 9.257 16.034 -43.57966 0 0 0
571 0 1 0 0.712 16.034 -43.57966 0 0 0
569 0 1 0 4.985 11.101 -43.57966 0 0 0
552 0 1 0 9.257 16.034 -40 0 0 0
551 0 1 0 0.712 16.034 -40 0 0 0
549 0 1 0 4.985 11.101 -40 0 0 0
649 0 1 0 9.257 18.501 -47.15932 0 0 0
648 0 1 0 0.712 18.501 -47.15932 0 0 0
646 0 1 0 4.985 13.568 -47.15932 0 0 0
633 0 1 0 9.257 18.501 -43.57966 0 0 0
632 0 1 0 0.712 18.501 -43.57966 0 0 0
630 0 1 0 4.985 13.568 -43.57966 0 0 0
613 0 1 0 9.257 18.501 -40 0 0 0
612 0 1 0 0.712 18.501 -40 0 0 0
610 0 1 0 4.985 13.568 -40 0 0 0
708 0 1 0 2.848 14.801 -47.15932 0 0 0
692 0 1 0 2.848 14.801 -43.57966 0 0 0
672 0 1 0 2.848 14.801 -40 0 0 0
721 0 1 0 7.121 12.334 -47.15932 0 0 0
752 0 1 0 2.848 17.268 -43.57966 0 0 0
750 0 1 0 7.121 12.334 -43.57966 0 0 0
732 0 1 0 2.848 17.268 -40 0 0 0
730 0 1 0 7.121 12.334 -40 0 0 0
723 0 1 0 2.848 17.268 -47.15932 0 0 0
781 0 1 0 9.97 14.801 -47.15932 0 0 0
832 0 1 0 1.424 14.801 -47.15932 0 0 0
1147 53 3 0.5564 4.078560459727196 15.317491352178703 -37.52399143402916 0 0 0
965 5 6 -0.85 3.13146250044828 6.062626222514758 -33.709331796172634 0 0 0
1372 109 4 -1.1128 6.2063624971259035 7.532837282402921 -36.32033495871861 0 0 0
3306 593 3 0.5564 8.560380449439327 7.353491083823584 -26.042126070068406 0 0 0
1352 104 4 -1.1128 4.336256350108356 5.1676799581439345 -29.049611650446288 0 0 0
1021 22 2 0 3.401110387556874 9.793876049173956 -35.81981597743696 0 0 0
3308 593 4 -1.1128 9.051852166742526 8.068433348328142 -26.121428342520893 0 0 0
985 13 2 0 8.436790595053811 9.676938385328615 -35.962426288156195 0 0 0
1024 22 4 -1.1128 3.5284189607473038 9.706490298712692 -35.82739343139856 0 0 0
1033 25 2 0 5.908586086898377 2.959043997470016 -28.61634115807552 0 0 0
1034 25 3 0.5564 5.528745608882816 2.40944342136578 -29.30182572749109 0 0 0
1035 25 3 0.5564 5.474024415328062 3.805683192080858 -28.719233843193372 0 0 0
1036 25 4 -1.1128 5.8011352673397845 2.9982347621497443 -28.7203582977209 0 0 0
1052 29 4 -1.1128 3.341715597533247 4.230863187894161 -36.19774500610451 0 0 0
1369 109 2 0 6.336100045595625 7.584126329019341 -36.38695899502867 0 0 0
1178 61 3 0.5564 7.885522005593967 1.5764422508782523 -27.057556577870688 0 1 0
3397 616 2 0 3.338094334789656 6.839523755239589 -36.25953996911282 1 0 0
986 13 3 0.5564 9.202535220124734 9.113509996192603 -35.85101580215702 0 0 0
3388 613 4 -1.1128 3.557982833126953 0.84487751734067 -33.974620598492926 1 0 0
1081 37 2 0 5.0315939847145525 2.6549760188489 -31.272329292940764 0 0 0
1082 37 3 0.5564 5.374692030615462 3.52838551138798 -31.083468852028332 0 0 0
1083 37 3 0.5564 5.5145269138048425 2.369998248475157 -32.048081916715326 0 0 0
1084 37 4 -1.1128 5.140579091505735 2.7326126886846684 -31.34976283860753 0 0 0
1350 104 3 0.5564 3.7925694366002727 5.015304911628445 -28.386164496424605 0 0 0
3369 609 2 0 3.0029459438286232 3.395814666223148 -33.20900670710252 1 0 0
3370 609 3 0.5564 3.7788402537897285 3.306623423932002 -32.655597618842684 1 0 0
1050 29 3 0.5564 3.2158677696824207 4.0922764098979325 -35.346903205244985 0 0 0
1105 43 2 0 0.3714770027577984 6.366114049109068 -33.67493299381834 0 0 0
1106 43 3 0.5564 1.2990614334115174 6.187582454778449 -33.52020009255106 0 0 0
3399 616 3 0.5564 2.458051941292478 6.696575940258581 -36.60785015377577 1 0 0
1108 43 4 -1.1128 0.44274099599117434 6.34674719648003 -33.53911131554982 0 0 0
1118 46 3 0.5564 8.71171278393545 1.4507586851134033 -31.750690829976847 0 0 0
1129 49 2 0 1.707521669769439 9.067369200280751 -29.058638537463413 0 0 0
1130 49 3 0.5564 2.582510896221925 9.455455162644206 -29.055201051681117 0 0 0
1132 49 4 -1.1128 1.7685683304732098 9.164047703427581 -29.16269492720574 0 0 0
1156 55 4 -1.1128 0.9469723286353439 4.8521549067141345 -28.712461633904024 0 0 0
1051 29 3 0.5564 3.4811902160651678 5.035633108079535 -36.500842263185866 0 0 0
3411 619 3 0.5564 8.088222465790869 3.6668321663446064 -28.821327030905646 0 0 0
3524 647 4 -1.1128 2.088575438947898 3.133583803009995 -30.817300735581547 1 0 0
3286 588 3 0.5564 7.22593019316641 5.725797781674687 -31.332435074917072 0 0 0
997 16 2 0 6.632383250125827 6.417167837732667 -27.794678044655015 0 0 0
1089 39 2 0 5.8237502948038555 2.8572159193706455 -36.33704617519695 0 0 0
3521 647 2 0 2.0020784693173437 3.246899489306092 -30.757476079427292 1 0 0
977 11 2 0 6.08942373874637 1.7511827951729755 -33.5924286025198 0 1 0
1049 29 2 0 3.3392732145809916 4.111460579632195 -36.29591940147191 0 0 0
1235 75 3 0.5564 5.725355755187704 4.388464428349052 -25.46740415885674 0 0 0
1236 75 4 -1.1128 6.392350432567874 4.948414666181483 -25.49084711937604 0 0 0
1265 83 2 0 2.264855594709402 2.662237030963771 -27.47322564749224 0 0 0
1268 83 4 -1.1128 2.365682804705008 2.5804032609514125 -27.389331262638034 0 0 0
1285 88 2 0 3.2737563547399016 6.867380054363626 -31.10225656339625 0 0 0
1286 88 3 0.5564 2.370513405792907 6.805266693677042 -30.791575404486164 0 0 0
1287 88 3 0.5564 3.239683335914959 6.549107957223019 -32.00434889706827 0 0 0
1288 88 4 -1.1128 3.150088497313856 6.8171926509874385 -31.180286337085565 0 0 0
3291 589 3 0.5564 9.571006895270408 17.865121672288023 -28.365322554762137 0 0 0
3287 588 3 0.5564 7.304759795800616 4.247660753447866 -31.64990952984746 0 0 0
1317 96 2 0 8.747456315362989 3.32827724175231 -31.85392651820978 0 0 0
1319 96 3 0.5564 8.946322167105413 3.6282945960550355 -32.740871069479994 0 0 0
1320 96 4 -1.1128 8.865403264892914 3.417221943655449 -31.89951727494781 0 0 0
1325 98 2 0 5.706712478352214 6.889198078438757 -33.72369323636656 0 0 0
1326 98 3 0.5564 4.790780370153659 6.61227423518273 -33.698990299148086 0 0 0
1327 98 3 0.5564 6.081254774928256 6.552538635113329 -32.90968637878161 0 0 0
1328 98 4 -1.1128 5.635282437322618 6.808242954432565 -33.6130353078858 0 0 0
1341 102 2 0 2.7390781657503984 5.575156057297638 -26.935759042262866 0 0 0
1579 161 3 0.5564 4.550775646079699 2.2505903984712594 -25.68711638250875 0 0 0
1344 102 4 -1.1128 2.669274206737437 5.645528598254393 -26.81711557305615 0 0 0
3409 619 2 0 9.02422086610127 3.7235512792642718 -28.629184860245605 0 0 0
1371 109 3 0.5564 5.474503081807585 7.474829539683547 -36.78936868767048 0 0 0
980 11 4 -1.1128 6.137400952342321 1.6565415151302736 -33.704866919331494 0 1 0
3540 651 4 -1.1128 2.326593566562863 1.5285303502470056 -36.295903734702335 1 0 0
3385 613 2 0 3.456719625329376 0.7435111147461798 -33.91655360983674 1 0 0
970 9 3 0.5564 9.586026446035053 3.196906903342148 -34.859856828200584 0 0 0
1023 22 3 0.5564 3.4559206192429697 8.85035626473253 -35.97145677593838 0 0 0
1008 18 4 -1.1128 8.248533209491853 5.3305857853423415 -36.73813003697607 0 0 0
1461 132 2 0 1.38101156065756 4.053155693782683 -25.056117262828334 0 0 0
1000 16 4 -1.1128 6.548906267084296 6.465879222511961 -27.915342680299293 0 0 0
3523 647 3 0.5564 2.348176473193403 3.1816504678059108 -31.6475251869524 1 0 0
1007 18 3 0.5564 7.555356581354912 5.842409832882904 -36.60960748073051 0 0 0
3559 656 3 0.5564 0.03826040554509191 14.220282130172732 -35.27608766556908 1 0 0
1370 109 3 0.5564 6.214377023647057 7.304687974349571 -35.47958564917422 0 0 0
969 9 2 0 9.2250329557426 4.011302195037836 -34.509610221178654 0 0 0
1363 107 3 0.5564 6.406022819081335 9.147333492221042 -29.83935964935011 0 0 0
3522 647 3 0.5564 2.3115670704496702 2.453294768410972 -30.32085607342425 1 0 0
3538 651 3 0.5564 2.6866087857210066 1.2162066947075798 -35.566644715515736 1 0 0
1019 21 3 0.5564 9.50452889555634 4.543572502625926 -25.281308282975655 0 0 0
3288 588 4 -1.1128 6.84492530696585 4.984961220571258 -31.587331538846556 0 0 0
1092 39 4 -1.1128 5.819904299730947 3.0016930205085717 -36.28215778326679 0 0 0
1005 18 2 0 8.228511015842011 5.179100764220422 -36.761636634712445 0 0 0
1349 104 2 0 4.486848439857038 5.136445799189844 -29.033876027816202 0 0 0
998 16 3 0.5564 5.907292109401775 5.965184063937349 -28.226166379108204 0 0 0
3410 619 3 0.5564 9.408710131205499 2.9752386907168993 -29.08572067673881 0 0 0
979 11 3 0.5564 6.204577198590914 1.9551310977978218 -34.52053066988214 0 1 0
3372 609 4 -1.1128 3.0859598447130794 3.5086171421293737 -33.14354333039942 1 0 0
972 9 4 -1.1128 9.223013853916024 3.9622319104238604 -34.65620213908587 0 0 0
999 16 3 0.5564 6.724777174493199 7.238349879503304 -28.277743354849566 0 0 0
3285 588 2 0 6.694218379470418 4.98432743262687 -31.621801530400486 0 0 0
971 9 3 0.5564 8.848736084102756 4.453779008730467 -35.2704279461552 0 0 0
3400 616 4 -1.1128 3.210979900688854 6.798617879746034 -36.18163111214944 1 0 0
3398 616 3 0.5564 3.25469811701934 6.672433609882129 -35.32073507400092 1 0 0
3537 651 2 0 2.2230213779218433 1.4432519058794002 -36.37272527247886 1 0 0
3371 609 3 0.5564 2.856239010972121 4.339969874671337 -33.26624913116039 1 0 0
988 13 4 -1.1128 8.442672895868201 9.522643848643794 -35.97015639076515 0 0 0
3412 619 4 -1.1128 8.951455698914414 3.6173367805215233 -28.714770318713118 0 0 0
1351 104 3 0.5564 4.039744602984996 5.494319792159051 -29.80085258620022 0 0 0
3386 613 3 0.5564 3.4065488268415147 1.6991651728321542 -33.8956517165504 1 0 0
1342 102 3 0.5564 2.402067643926699 5.175851992791575 -26.133756019108343 0 0 0
3266 583 3 0.5564 8.726961860190647 7.581605326079611 -31.01186622046244 0 0 0
1091 39 3 0.5564 5.057671619422001 3.4187492587295036 -36.21858753763256 0 0 0
1223 72 3 0.5564 0.46534774655981404 2.9060992043950953 -31.857646158762766 0 0 0
3418 621 3 0.5564 10.137341736140375 5.252056410534321 -28.623479299410388 0 0 0
3265 583 2 0 8.837094449659025 6.630978129960748 -31.032050958167215 0 0 0
1208 68 4 -1.1128 1.8992643955133541 8.233630806895682 -26.539042473462295 0 0 0
1154 55 3 0.5564 1.564170204290841 5.056792941664383 -28.13266356747226 0 0 0
1155 55 3 0.5564 1.0806179732945027 4.223038148280267 -29.300106668615687 0 0 0
3305 593 2 0 8.986011946948219 8.207996661924593 -26.11203116446493 0 0 0
1367 108 3 0.5564 7.814949374126635 12.77734785740782 -37.34015440802667 0 0 0
3268 583 4 -1.1128 8.884855638760039 6.729474691006287 -30.922879275584876 0 0 0
3267 583 3 0.5564 9.309223487646177 6.42688605913763 -30.224790606721356 0 0 0
1343 102 3 0.5564 2.5470234416942303 6.507834821619271 -26.838527450426035 0 0 0
1266 83 3 0.5564 2.9915176196887923 2.992397987813998 -26.944846313183458 0 0 0
1205 68 2 0 1.7951908954929725 8.129495545198138 -26.49186500145825 0 0 0
1207 68 3 0.5564 1.8345775357259524 8.577013138567253 -27.33709004432925 0 0 0
3307 593 3 0.5564 9.910666316036533 8.004709818681635 -26.25316030387344 0 0 0
3420 621 4 -1.1128 10.478677546801446 6.002203204218695 -28.905871567692245 0 0 0
3417 621 2 0 10.414051574219462 6.136258562542173 -28.863993117713814 0 0 0
1345 103 2 0 10.296256590984214 9.547677312173251 -28.664228634419672 0 0 0
3539 651 3 0.5564 2.5444388068755868 2.316648151800126 -36.59655223885319 1 0 0
1098 41 3 0.5564 9.699376860202507 0.4101446810036725 -35.023040692038805 0 1 0
1038 26 3 0.5564 1.2965410390458703 12.049742994620608 -36.96832849042718 0 0 0
1462 132 3 0.5564 0.5934694947803915 3.5097634022656417 -25.029080456548872 0 0 0
1177 61 2 0 7.329142127809128 0.8648704235062692 -27.374314597479685 0 1 0
1163 57 3 0.5564 0.13731836378823598 18.066425648869348 -26.510301566817784 0 0 0
1347 103 3 0.5564 10.084072429265843 9.601562276580738 -29.596056391586565 0 0 0
1231 74 3 0.5564 6.663485126322456 10.412215945277826 -33.50253341980233 0 0 0
1346 103 3 0.5564 10.52668700899525 8.629383608911152 -28.52327767165447 0 0 0
1578 161 3 0.5564 4.99145136864694 2.935988729045602 -26.963018904641924 0 0 0
1206 68 3 0.5564 2.544608682063872 8.47125048900053 -26.004212239282325 0 0 0
3275 585 3 0.5564 0.11154011291369417 18.72777854939914 -35.073456394607504 1 0 0
1043 27 3 0.5564 0.15613790868172067 7.502932147058133 -30.519997295972495 0 0 0
1179 61 3 0.5564 6.693044064564278 1.2941038073888274 -27.94647421943572 0 1 0
1580 161 4 -1.1128 4.612193416959913 2.9667909397207244 -26.17931591830099 0 0 0
3587 663 3 0.5564 7.172838113234266 9.892065101103013 -26.210148964574106 0 0 0
3362 607 3 0.5564 0.09266558205114776 6.768022205391752 -35.5038887268176 1 0 0
1180 61 4 -1.1128 7.318624247464931 1.0153863018942944 -27.40801184582649 0 1 0
987 13 3 0.5564 7.7156297009160735 9.070921973004047 -36.13242555185958 0 0 0
1090 39 3 0.5564 6.560679014256654 3.3907180782613118 -36.0394891456974 0 0 0
1677 186 2 0 8.460592587545339 3.1885258021769385 -26.02158872145993 0 0 0
1577 161 2 0 4.555225679118216 3.1006791625081727 -26.12706861555703 0 0 0
1006 18 3 0.5564 9.053419691151502 5.663942331714594 -36.735502199020516 0 0 0
1029 24 2 0 4.690041494924361 19.715443822047163 -29.11932626316609 0 0 0
1032 24 4 -1.1128 4.745435983551705 19.656352634631652 -29.25101089476576 0 0 0
1117 46 2 0 8.913454611262644 0.554833267155461 -32.020591844172024 0 0 0
1120 46 4 -1.1128 8.808655018374228 0.6010525832762355 -31.916755529966682 0 0 0
1678 186 3 0.5564 8.872081153612765 3.471112019785112 -26.838320541896515 0 0 0
3357 606 2 0 0.08760583756135976 19.7119081892451 -30.930986355614714 1 0 0
1318 96 3 0.5564 9.442545946034436 3.7023985931547747 -31.312528054361014 0 0 0
3360 606 4 -1.1128 0.1857604702367679 0.07832786002126041 -30.994080558708276 1 1 0
1102 42 3 0.5564 10.450614441051355 19.43218158527018 -31.387397097147048 0 0 0
3387 613 3 0.5564 4.2743947987777045 0.5561435760917802 -34.37756271287582 1 0 0
1012 19 4 -1.1128 5.293463619930448 8.852532366216503 -31.475552283004575 0 0 0
1009 19 2 0 5.298245849638075 8.957218376221883 -31.361889933969472 0 0 0
1010 19 3 0.5564 5.861822769210397 8.904321559440026 -32.13377830633928 0 0 0
1267 83 3 0.5564 2.3023933859295753 1.7118332646071939 -27.365744151291537 0 0 0
1011 19 3 0.5564 4.6984229696374795 8.216668368398945 -31.45148276538602 0 0 0
3586 663 3 0.5564 6.590670349439615 9.262592508344834 -27.45784209982998 0 0 0
1680 186 4 -1.1128 8.42152083166056 3.30875831945629 -26.1105757973797 0 0 0
3358 606 3 0.5564 1.0392059705483925 0.009966640296009941 -30.833042480802646 1 1 0
1679 186 3 0.5564 7.752967406500253 3.817218073878289 -25.879316772173063 0 0 0
3560 656 4 -1.1128 0.12094826818179003 14.098662231577988 -34.417398514281835 1 0 0
1234 75 3 0.5564 6.466993011567136 5.52335961571612 -26.14111055161326 0 0 0
1131 49 3 0.5564 1.2952234856601026 9.412038754394196 -29.850750766094798 0 0 0
1189 64 2 0 6.746238555469051 16.494861858127457 -28.53826094350467 0 0 0
1071 34 3 0.5564 0.7022431596570702 15.973073546720762 -28.035052838696675 0 0 0
1364 107 4 -1.1128 7.152777286166938 9.154704642409225 -29.390718174525688 0 0 0
1361 107 2 0 7.163207776454895 9.075822871950368 -29.258166180343668 0 0 0
1362 107 3 0.5564 7.841336903946072 9.6021809667694 -29.681624229466095 0 0 0
1306 93 3 0.5564 8.711455944510233 9.90098782656616 -31.857559430961203 0 0 0
1529 149 2 0 4.0561298270513175 8.760397409637523 -25.230615827067332 0 0 0
1530 149 3 0.5564 4.741374010322128 8.963759645990844 -25.867257709933135 0 0 0
1532 149 4 -1.1128 4.174088308281836 8.670658003567079 -25.27459077111407 0 0 0
1064 32 4 -1.1128 1.7914705447810149 9.49755064763135 -33.70348978740994 0 0 0
1153 55 2 0 0.8123957099182166 4.928235887342227 -28.711055191110397 0 0 0
1100 41 4 -1.1128 8.867966982475622 0.4364989510286296 -34.76412215548795 0 1 0
1097 41 2 0 8.754860800965481 0.43323482870468 -34.8694668146295 0 1 0
1099 41 3 0.5564 8.66761058420144 0.48106474338053135 -33.91745401228031 0 1 0
3292 589 4 -1.1128 9.784275155314933 18.652826904782597 -28.060342462201508 0 0 0
1270 84 3 0.5564 0.1866199298945086 2.197241948602934 -27.333775182174037 0 0 0
1478 136 3 0.5564 9.898410855395866 10.58872982008782 -27.173162531091883 0 0 0
1694 190 3 0.5564 8.586772881382037 13.380220142136352 -25.971919231507417 0 0 0
3290 589 3 0.5564 10.456568909660106 18.750935778585 -27.515024667104242 0 0 0
1030 24 3 0.5564 4.348162202427127 0.10125874425570944 -30.00518797970731 0 1 0
1061 32 2 0 1.6473066764869353 9.551736999361074 -33.69000726669941 0 0 0
1119 46 3 0.5564 8.32088873507801 0.009217977643049657 -31.503486134348744 0 0 0
1126 48 3 0.5564 0.5087808316879253 3.1592423431289127 -35.54399902023747 0 0 0
1330 99 3 0.5564 8.0978818382 18.96705985411534 -29.43548922893445 0 0 0
3407 618 3 0.5564 3.1528982701607053 0.2001323266531541 -32.23671985812928 1 0 0
1305 93 2 0 9.371486763044512 9.60904946080565 -31.22878285213364 0 0 0
1308 93 4 -1.1128 9.389597726764624 9.633949843178858 -31.38028573643225 0 0 0
1307 93 3 0.5564 10.168786034675023 9.505838598600313 -31.74829229986325 0 0 0
1022 22 3 0.5564 4.3112102058165345 10.07507289079203 -35.725606986529655 0 0 0
1209 69 2 0 6.974098442875046 16.05434871526012 -35.3071296181133 0 0 0
1063 32 3 0.5564 2.087404530357972 8.911825106086143 -33.13049379522318 0 0 0
1044 27 4 -1.1128 0.29809762589576594 6.662009922101512 -30.697966369585007 0 0 0
1182 62 3 0.5564 0.38391081768903956 12.848455748572759 -29.712259189943023 0 0 0
1062 32 3 0.5564 2.2998702347263142 9.780954199862279 -34.35170882658297 0 0 0
1192 64 4 -1.1128 6.759062322075196 16.344498506877205 -28.571840306375698 0 0 0
1191 64 3 0.5564 7.548097452718512 15.977401926968282 -28.612329867127407 0 0 0
1042 27 3 0.5564 0.4466657622093376 6.091220890866982 -30.056793123422448 0 0 0
3557 656 2 0 0.16157250961274872 14.217218091346336 -34.326870401947886 1 0 0
3471 634 3 0.5564 0.303900161684041 10.9048267158038 -33.761851505817724 1 0 0
1229 74 2 0 7.440372551539196 9.910618816722256 -33.25540000226249 0 0 0
1232 74 4 -1.1128 7.412449713079777 9.981727412824268 -33.38980626198565 0 0 0
1211 69 3 0.5564 6.210971587291314 16.592742271265575 -35.0973715240176 0 0 0
3588 663 4 -1.1128 6.483800356966908 9.640991335854581 -26.680430450220754 0 0 0
1210 69 3 0.5564 7.448687048559237 16.55800818007713 -35.9684324804653 0 0 0
3423 622 3 0.5564 1.4159290234733364 17.171989079675555 -32.18898353493987 1 0 0
1230 74 3 0.5564 8.005624367485506 9.947975171792134 -34.02697214030617 0 0 0
1366 108 3 0.5564 8.323832923832638 11.432341152608121 -36.866986671507675 0 0 0
1259 81 3 0.5564 10.097380311795948 15.110440053890574 -25.87694941022268 0 0 0
3585 663 2 0 6.341146700461608 9.663812304396593 -26.625382310556716 0 0 0
3227 573 3 0.5564 5.974968551779906 0.8701526316652738 -36.584142655415015 1 1 0
3274 585 3 0.5564 0.5417317021084039 0.11074516866116191 -35.999188021377414 1 1 0
1298 91 3 0.5564 10.092674907955338 6.291104738583093 -32.48786380440402 0 0 0
1254 80 3 0.5564 5.762593255889486 12.489723369035524 -33.23911674150362 0 0 0
1241 77 2 0 6.1570516256392605 13.461963728800686 -31.765614080715014 0 0 0
1284 87 4 -1.1128 9.514055090208698 16.004704185291917 -28.885121208256283 0 0 0
1166 58 3 0.5564 0.43235995743035427 15.350223934964356 -37.426659443655545 0 0 0
1213 70 2 0 6.340579838169866 12.568139396635354 -27.75786993217614 0 0 0
1477 136 2 0 9.8393667319315 11.36371076247103 -26.614461352171453 0 0 0
1262 82 3 0.5564 10.613961922798431 12.70166651307347 -27.895776059956024 0 0 0
973 10 2 0 1.5339118334042299 12.39419538033545 -31.03625789346506 0 0 0
1480 136 4 -1.1128 9.800516126132461 11.218328103612356 -26.57902587655411 0 0 0
3228 573 4 -1.1128 5.841141219757795 0.025091944430360825 -36.420013374072965 1 1 0
3289 589 2 0 9.702002221931886 18.776425955345818 -28.103419127954805 0 0 0
3422 622 3 0.5564 2.547189997042493 16.194232618701086 -31.95205712716323 1 0 0
975 10 3 0.5564 1.0012282608205592 11.97322180502229 -31.71098608858333 0 0 0
1216 70 4 -1.1128 6.423969524329911 12.453034056091255 -27.81868177987341 0 0 0
1031 24 3 0.5564 5.451772313902675 19.14675897897185 -29.231542062299045 0 0 0
3477 636 2 0 0.0941215662406781 17.97547172799296 -33.21396444867229 1 -1 0
1244 77 4 -1.1128 6.17605694436367 13.587530306530022 -31.677449504963036 0 0 0
993 15 2 0 1.8544084383391053 16.96777289392965 -36.33439062099226 0 -1 0
1479 136 3 0.5564 9.485862156649008 11.036792711683205 -25.78718402247883 0 0 0
3300 591 4 -1.1128 1.972674428137846 17.28766042089222 -28.732305493109948 1 0 0
3551 654 3 0.5564 2.2096806108663145 14.38790048906774 -33.20167589226402 1 0 0
978 11 3 0.5564 6.3379040421825374 0.8299197040433842 -33.51653042977111 0 1 0
995 15 3 0.5564 1.380725896379941 17.765148468420424 -36.57113039278522 0 -1 0
1696 190 4 -1.1128 8.819247076761878 13.837000058753729 -25.267445245360648 0 0 0
1190 64 3 0.5564 6.041574850706107 15.872672627184452 -28.71870013267467 0 0 0
1247 78 3 0.5564 8.283800393536943 18.63229281931214 -35.997595876141446 0 0 0
3297 591 2 0 1.982488002531101 17.170435732033045 -28.631989860831137 1 0 0
3299 591 3 0.5564 1.8862634117687014 17.12117226729837 -29.58306431431779 1 0 0
1246 78 3 0.5564 9.286664929288523 17.70357879327817 -36.648476964190145 0 0 0
3552 654 4 -1.1128 2.5556556071395957 14.277370306663103 -32.40980461381576 1 0 0
1212 69 4 -1.1128 6.936029202216152 16.191835399409737 -35.36670565857587 0 0 0
1313 95 2 0 6.05410434198125 13.81682749524482 -36.43173516701926 0 0 0
1283 87 3 0.5564 10.087430693102567 15.665577789726285 -28.323686041263006 0 0 0
3549 654 2 0 2.656462873264299 14.381073764981862 -32.35517268332457 1 0 0
1282 87 3 0.5564 9.509519783555563 15.755912665480015 -29.720021173260033 0 0 0
1281 87 2 0 9.412099620677514 16.110079011063302 -28.836107043708406 0 0 0
3550 654 3 0.5564 2.339196480071874 13.58824727168778 -31.922741342899677 1 0 0
1353 105 2 0 6.376500722329992 18.799953825819205 -32.89067115501591 0 0 0
1356 105 4 -1.1128 6.35181185165477 18.693902530965044 -32.78092261277257 0 0 0
1354 105 3 0.5564 5.538426516380001 18.43531652160478 -32.606242009890856 0 0 0
974 10 3 0.5564 2.396813263372146 11.989418590652017 -31.124493654882453 0 0 0
1593 165 2 0 2.721101307473806 11.405217984184585 -26.137110323970546 0 0 0
1039 26 3 0.5564 1.7106847042402662 10.714787575014297 -36.38671671076402 0 0 0
1348 103 4 -1.1128 10.298663970671901 9.43362870919404 -28.768575559058252 0 0 0
3303 592 3 0.5564 10.383492891197003 11.87620393782581 -36.99302755975544 0 0 0
1365 108 2 0 8.608940298920963 12.327225246908872 -37.05171598520148 0 0 0
1233 75 2 0 6.498520014289364 4.945727105398281 -25.37849963638634 0 0 0
1368 108 4 -1.1128 8.46656592433755 12.268544181335923 -37.06539918677152 0 0 0