LAMMPS data file via write_data, version 29 Aug 2024, timestep = 10000, units = real

5492 atoms
7 atom types

0 21.363 xlo xhi
0 19.735 ylo yhi
-50 50 zlo zhi

Masses

1 12
2 15.9994
3 1.008
4 1e-100
5 39.0983
6 14.0067
7 15.9994

Atoms # full

1 0 1 0 7.833 3.7 -40 0 0 0
3 0 1 0 3.561 8.634 -40 0 0 0
43 0 1 0 3.561 8.634 -47.15932 0 0 0
41 0 1 0 7.833 3.7 -47.15932 0 0 0
23 0 1 0 3.561 8.634 -43.57966 0 0 0
21 0 1 0 7.833 3.7 -43.57966 0 0 0
104 0 1 0 4.985 6.167 -47.15932 0 0 0
102 0 1 0 9.257 1.233 -47.15932 0 0 0
101 0 1 0 0.712 1.233 -47.15932 0 0 0
84 0 1 0 4.985 6.167 -43.57966 0 0 0
82 0 1 0 9.257 1.233 -43.57966 0 0 0
81 0 1 0 0.712 1.233 -43.57966 0 0 0
68 0 1 0 4.985 6.167 -40 0 0 0
66 0 1 0 9.257 1.233 -40 0 0 0
65 0 1 0 0.712 1.233 -40 0 0 0
164 0 1 0 4.985 8.634 -47.15932 0 0 0
162 0 1 0 9.257 3.7 -47.15932 0 0 0
161 0 1 0 0.712 3.7 -47.15932 0 0 0
144 0 1 0 4.985 8.634 -43.57966 0 0 0
142 0 1 0 9.257 3.7 -43.57966 0 0 0
141 0 1 0 0.712 3.7 -43.57966 0 0 0
128 0 1 0 4.985 8.634 -40 0 0 0
126 0 1 0 9.257 3.7 -40 0 0 0
125 0 1 0 0.712 3.7 -40 0 0 0
226 0 1 0 2.848 9.867 -47.15932 0 0 0
224 0 1 0 7.121 4.934 -47.15932 0 0 0
221 0 1 0 2.848 0 -47.15932 0 0 0
206 0 1 0 2.848 9.867 -43.57966 0 0 0
204 0 1 0 7.121 4.934 -43.57966 0 0 0
201 0 1 0 2.848 0 -43.57966 0 0 0
189 0 1 0 2.848 9.867 -40 0 0 0
187 0 1 0 7.121 4.934 -40 0 0 0
184 0 1 0 2.848 0 -40 0 0 0
284 0 1 0 7.121 7.4 -47.15932 0 0 0
281 0 1 0 2.848 2.467 -47.15932 0 0 0
264 0 1 0 7.121 7.4 -43.57966 0 0 0
261 0 1 0 2.848 2.467 -43.57966 0 0 0
248 0 1 0 7.121 7.4 -40 0 0 0
245 0 1 0 2.848 2.467 -40 0 0 0
347 0 1 0 9.97 9.867 -47.15932 0 0 0
346 0 1 0 1.424 9.867 -47.15932 0 0 0
344 0 1 0 5.697 4.934 -47.15932 0 0 0
342 0 1 0 9.97 0 -47.15932 0 0 0
341 0 1 0 1.424 0 -47.15932 0 0 0
327 0 1 0 9.97 9.867 -43.57966 0 0 0
326 0 1 0 1.424 9.867 -43.57966 0 0 0
324 0 1 0 5.697 4.934 -43.57966 0 0 0
311 0 1 0 9.97 9.867 -40 0 0 0
310 0 1 0 1.424 9.867 -40 0 0 0
308 0 1 0 5.697 4.934 -40 0 0 0
306 0 1 0 9.97 0 -40 0 0 0
305 0 1 0 1.424 0 -40 0 0 0
303 0 1 0 9.97 0 -43.57966 0 0 0
302 0 1 0 1.424 0 -43.57966 0 0 0
361 0 1 0 5.697 7.4 -43.57966 0 0 0
404 0 1 0 5.697 7.4 -47.15932 0 0 0
402 0 1 0 9.97 2.467 -47.15932 0 0 0
401 0 1 0 1.424 2.467 -47.15932 0 0 0
385 0 1 0 9.97 2.467 -43.57966 0 0 0
384 0 1 0 1.424 2.467 -43.57966 0 0 0
367 0 1 0 5.697 7.4 -40 0 0 0
365 0 1 0 9.97 2.467 -40 0 0 0
364 0 1 0 1.424 2.467 -40 0 0 0
425 0 1 0 3.561 1.233 -40 0 0 0
464 0 1 0 7.833 6.167 -47.15932 0 0 0
461 0 1 0 3.561 1.233 -47.15932 0 0 0
428 0 1 0 7.833 6.167 -40 0 0 0
448 0 1 0 7.833 6.167 -43.57966 0 0 0
445 0 1 0 3.561 1.233 -43.57966 0 0 0
485 0 1 0 3.561 3.7 -40 0 0 0
524 0 1 0 7.833 8.634 -47.15932 0 0 0
488 0 1 0 7.833 8.634 -40 0 0 0
521 0 1 0 3.561 3.7 -47.15932 0 0 0
508 0 1 0 7.833 8.634 -43.57966 0 0 0
505 0 1 0 3.561 3.7 -43.57966 0 0 0
584 0 1 0 9.257 6.167 -47.15932 0 0 0
583 0 1 0 0.712 6.167 -47.15932 0 0 0
581 0 1 0 4.985 1.233 -47.15932 0 0 0
567 0 1 0 9.257 6.167 -43.57966 0 0 0
566 0 1 0 0.712 6.167 -43.57966 0 0 0
564 0 1 0 4.985 1.233 -43.57966 0 0 0
547 0 1 0 9.257 6.167 -40 0 0 0
546 0 1 0 0.712 6.167 -40 0 0 0
544 0 1 0 4.985 1.233 -40 0 0 0
644 0 1 0 9.257 8.634 -47.15932 0 0 0
643 0 1 0 0.712 8.634 -47.15932 0 0 0
628 0 1 0 9.257 8.634 -43.57966 0 0 0
627 0 1 0 0.712 8.634 -43.57966 0 0 0
625 0 1 0 4.985 3.7 -43.57966 0 0 0
608 0 1 0 9.257 8.634 -40 0 0 0
607 0 1 0 0.712 8.634 -40 0 0 0
605 0 1 0 4.985 3.7 -40 0 0 0
604 0 1 0 4.985 3.7 -47.15932 0 0 0
706 0 1 0 7.121 9.867 -47.15932 0 0 0
705 0 1 0 7.121 0 -47.15932 0 0 0
690 0 1 0 7.121 9.867 -43.57966 0 0 0
687 0 1 0 2.848 4.934 -43.57966 0 0 0
685 0 1 0 7.121 0 -43.57966 0 0 0
670 0 1 0 7.121 9.867 -40 0 0 0
667 0 1 0 2.848 4.934 -40 0 0 0
665 0 1 0 7.121 0 -40 0 0 0
662 0 1 0 2.848 4.934 -47.15932 0 0 0
767 0 1 0 2.848 7.4 -47.15932 0 0 0
765 0 1 0 7.121 2.467 -47.15932 0 0 0
747 0 1 0 2.848 7.4 -43.57966 0 0 0
745 0 1 0 7.121 2.467 -43.57966 0 0 0
727 0 1 0 2.848 7.4 -40 0 0 0
725 0 1 0 7.121 2.467 -40 0 0 0
830 0 1 0 5.697 9.867 -47.15932 0 0 0
828 0 1 0 9.97 4.934 -47.15932 0 0 0
827 0 1 0 1.424 4.934 -47.15932 0 0 0
825 0 1 0 5.697 0 -47.15932 0 0 0
810 0 1 0 5.697 9.867 -43.57966 0 0 0
808 0 1 0 9.97 4.934 -43.57966 0 0 0
807 0 1 0 1.424 4.934 -43.57966 0 0 0
805 0 1 0 5.697 0 -43.57966 0 0 0
790 0 1 0 5.697 9.867 -40 0 0 0
788 0 1 0 9.97 4.934 -40 0 0 0
787 0 1 0 1.424 4.934 -40 0 0 0
785 0 1 0 5.697 0 -40 0 0 0
888 0 1 0 9.97 7.4 -47.15932 0 0 0
887 0 1 0 1.424 7.4 -47.15932 0 0 0
885 0 1 0 5.697 2.467 -47.15932 0 0 0
868 0 1 0 9.97 7.4 -43.57966 0 0 0
867 0 1 0 1.424 7.4 -43.57966 0 0 0
865 0 1 0 5.697 2.467 -43.57966 0 0 0
848 0 1 0 9.97 7.4 -40 0 0 0
847 0 1 0 1.424 7.4 -40 0 0 0
845 0 1 0 5.697 2.467 -40 0 0 0
905 0 1 0 7.833 1.233 -40 0 0 0
907 0 1 0 3.561 6.167 -40 0 0 0
947 0 1 0 3.561 6.167 -47.15932 0 0 0
945 0 1 0 7.833 1.233 -47.15932 0 0 0
927 0 1 0 3.561 6.167 -43.57966 0 0 0
925 0 1 0 7.833 1.233 -43.57966 0 0 0
750 0 1 0 7.121 12.334 -43.57966 0 0 0
732 0 1 0 2.848 17.268 -40 0 0 0
730 0 1 0 7.121 12.334 -40 0 0 0
723 0 1 0 2.848 17.268 -47.15932 0 0 0
781 0 1 0 9.97 14.801 -47.15932 0 0 0
832 0 1 0 1.424 14.801 -47.15932 0 0 0
812 0 1 0 1.424 14.801 -43.57966 0 0 0
792 0 1 0 1.424 14.801 -40 0 0 0
793 0 1 0 9.97 14.801 -40 0 0 0
813 0 1 0 9.97 14.801 -43.57966 0 0 0
950 0 1 0 7.833 11.101 -47.15932 0 0 0
850 0 1 0 5.697 12.334 -40 0 0 0
892 0 1 0 1.424 17.268 -47.15932 0 0 0
852 0 1 0 1.424 17.268 -40 0 0 0
853 0 1 0 9.97 17.268 -40 0 0 0
870 0 1 0 5.697 12.334 -43.57966 0 0 0
912 0 1 0 3.561 16.034 -40 0 0 0
893 0 1 0 9.97 17.268 -47.15932 0 0 0
873 0 1 0 9.97 17.268 -43.57966 0 0 0
952 0 1 0 3.561 16.034 -47.15932 0 0 0
930 0 1 0 7.833 11.101 -43.57966 0 0 0
872 0 1 0 1.424 17.268 -43.57966 0 0 0
932 0 1 0 3.561 16.034 -43.57966 0 0 0
890 0 1 0 5.697 12.334 -47.15932 0 0 0
910 0 1 0 7.833 11.101 -40 0 0 0
48 0 1 0 3.561 18.501 -47.15932 0 0 0
46 0 1 0 7.833 13.568 -47.15932 0 0 0
6 0 1 0 7.833 13.568 -40 0 0 0
8 0 1 0 3.561 18.501 -40 0 0 0
28 0 1 0 3.561 18.501 -43.57966 0 0 0
26 0 1 0 7.833 13.568 -43.57966 0 0 0
109 0 1 0 4.985 16.034 -47.15932 0 0 0
107 0 1 0 9.257 11.101 -47.15932 0 0 0
106 0 1 0 0.712 11.101 -47.15932 0 0 0
89 0 1 0 4.985 16.034 -43.57966 0 0 0
87 0 1 0 9.257 11.101 -43.57966 0 0 0
86 0 1 0 0.712 11.101 -43.57966 0 0 0
69 0 1 0 4.985 16.034 -40 0 0 0
63 0 1 0 9.257 11.101 -40 0 0 0
62 0 1 0 0.712 11.101 -40 0 0 0
121 0 1 0 4.985 18.501 -40 0 0 0
169 0 1 0 4.985 18.501 -47.15932 0 0 0
167 0 1 0 9.257 13.568 -47.15932 0 0 0
166 0 1 0 0.712 13.568 -47.15932 0 0 0
149 0 1 0 4.985 18.501 -43.57966 0 0 0
147 0 1 0 9.257 13.568 -43.57966 0 0 0
146 0 1 0 0.712 13.568 -43.57966 0 0 0
131 0 1 0 9.257 13.568 -40 0 0 0
130 0 1 0 0.712 13.568 -40 0 0 0
229 0 1 0 7.121 14.801 -47.15932 0 0 0
209 0 1 0 7.121 14.801 -43.57966 0 0 0
192 0 1 0 7.121 14.801 -40 0 0 0
289 0 1 0 7.121 17.268 -47.15932 0 0 0
286 0 1 0 2.848 12.334 -47.15932 0 0 0
269 0 1 0 7.121 17.268 -43.57966 0 0 0
266 0 1 0 2.848 12.334 -43.57966 0 0 0
253 0 1 0 7.121 17.268 -40 0 0 0
250 0 1 0 2.848 12.334 -40 0 0 0
349 0 1 0 5.697 14.801 -47.15932 0 0 0
329 0 1 0 5.697 14.801 -43.57966 0 0 0
313 0 1 0 5.697 14.801 -40 0 0 0
409 0 1 0 5.697 17.268 -47.15932 0 0 0
407 0 1 0 9.97 12.334 -47.15932 0 0 0
406 0 1 0 1.424 12.334 -47.15932 0 0 0
389 0 1 0 5.697 17.268 -43.57966 0 0 0
387 0 1 0 9.97 12.334 -43.57966 0 0 0
372 0 1 0 5.697 17.268 -40 0 0 0
370 0 1 0 9.97 12.334 -40 0 0 0
369 0 1 0 1.424 12.334 -40 0 0 0
363 0 1 0 1.424 12.334 -43.57966 0 0 0
423 0 1 0 7.833 16.034 -43.57966 0 0 0
469 0 1 0 7.833 16.034 -47.15932 0 0 0
466 0 1 0 3.561 11.101 -47.15932 0 0 0
450 0 1 0 3.561 11.101 -43.57966 0 0 0
430 0 1 0 3.561 11.101 -40 0 0 0
433 0 1 0 7.833 16.034 -40 0 0 0
529 0 1 0 7.833 18.501 -47.15932 0 0 0
526 0 1 0 3.561 13.568 -47.15932 0 0 0
490 0 1 0 3.561 13.568 -40 0 0 0
493 0 1 0 7.833 18.501 -40 0 0 0
513 0 1 0 7.833 18.501 -43.57966 0 0 0
510 0 1 0 3.561 13.568 -43.57966 0 0 0
589 0 1 0 9.257 16.034 -47.15932 0 0 0
588 0 1 0 0.712 16.034 -47.15932 0 0 0
586 0 1 0 4.985 11.101 -47.15932 0 0 0
572 0 1 0 9.257 16.034 -43.57966 0 0 0
571 0 1 0 0.712 16.034 -43.57966 0 0 0
569 0 1 0 4.985 11.101 -43.57966 0 0 0
552 0 1 0 9.257 16.034 -40 0 0 0
551 0 1 0 0.712 16.034 -40 0 0 0
549 0 1 0 4.985 11.101 -40 0 0 0
649 0 1 0 9.257 18.501 -47.15932 0 0 0
648 0 1 0 0.712 18.501 -47.15932 0 0 0
646 0 1 0 4.985 13.568 -47.15932 0 0 0
633 0 1 0 9.257 18.501 -43.57966 0 0 0
632 0 1 0 0.712 18.501 -43.57966 0 0 0
630 0 1 0 4.985 13.568 -43.57966 0 0 0
613 0 1 0 9.257 18.501 -40 0 0 0
612 0 1 0 0.712 18.501 -40 0 0 0
610 0 1 0 4.985 13.568 -40 0 0 0
708 0 1 0 2.848 14.801 -47.15932 0 0 0
692 0 1 0 2.848 14.801 -43.57966 0 0 0
672 0 1 0 2.848 14.801 -40 0 0 0
721 0 1 0 7.121 12.334 -47.15932 0 0 0
752 0 1 0 2.848 17.268 -43.57966 0 0 0
962 2 5 0.85 2.0659008982822584 4.257178874728944 -27.61173071422205 0 0 0
1101 51 2 0 3.9204985262348857 9.02102151129738 -34.034753446418556 0 0 0
1102 51 3 0.5564 4.213400186115396 8.242010582220255 -33.561911753124065 0 0 0
1103 51 3 0.5564 3.9627972095355557 8.771489498865638 -34.95788576253731 0 0 0
1104 51 4 -1.1128 3.9647242832634637 8.885317323786905 -34.09416401708886 0 0 0
1113 54 2 0 6.853686772409857 6.602324217365069 -36.75247337129869 0 0 0
1116 54 4 -1.1128 6.752711141818453 6.490802573374912 -36.71686431418673 0 0 0
1125 57 2 0 6.620419065634704 5.4233577080039765 -29.683188705728796 0 0 0
1126 57 3 0.5564 7.464496590937907 5.621085232926477 -30.088978841225043 0 0 0
1127 57 3 0.5564 6.418148421264117 4.533311617052242 -29.97151702433012 0 0 0
1128 57 4 -1.1128 6.705097962159747 5.332014386583107 -29.77476950128717 0 0 0
1129 58 2 0 1.1478260452179068 4.911483155214674 -36.7107001329061 0 0 0
1157 65 2 0 5.857367751655144 2.241161445568859 -26.526134578149836 0 0 0
1160 65 4 -1.1128 5.942821049020938 2.361688107716326 -26.48061296041821 0 0 0
1169 68 2 0 2.0099192827895505 5.8919267722657525 -25.72396132683158 0 0 0
1156 64 4 -1.1128 0.963673240305094 7.296064091405291 -33.38368373474844 0 0 0
1172 68 4 -1.1128 1.9823921073523296 6.04404932566799 -25.722497305372976 0 0 0
1179 70 3 0.5564 9.918390992404635 4.442826409964995 -29.6873672292019 0 0 0
1181 71 2 0 5.107581875995246 8.340837038351252 -29.7642079943533 0 0 0
1182 71 3 0.5564 4.740081790495662 9.219080165128787 -29.664903541654486 0 0 0
1183 71 3 0.5564 4.557145176962811 7.923894718298631 -30.427085976343506 0 0 0
1184 71 4 -1.1128 4.986470874690669 8.401700273757541 -29.83856491695558 0 0 0
1185 72 2 0 7.217965225515387 1.5724614726076964 -36.97017000547395 0 0 0
3539 660 3 0.5564 0.9613028497423357 13.344965276420146 -36.79022957571304 1 0 0
1213 79 2 0 5.92882194866958 0.12721613061904674 -31.578562635080377 0 0 0
1214 79 3 0.5564 5.628817634019223 19.25045560771521 -32.25085360683855 0 -1 0
1215 79 3 0.5564 6.029067363765972 19.324966278885313 -30.7927241462901 0 -1 0
1216 79 4 -1.1128 5.902466102872624 19.710617677079952 -31.563581370885352 0 -1 0
3574 669 3 0.5564 2.6792056926091026 6.4449166082739655 -30.811523931779558 1 0 0
1225 82 2 0 8.553437708604633 4.336049354643548 -33.64398597949865 0 0 0
1226 82 3 0.5564 8.318356912311712 4.276555286977778 -34.56995906335525 0 0 0
1227 82 3 0.5564 7.795448223721542 3.9797715647659606 -33.180578217212954 0 0 0
1228 82 4 -1.1128 8.422413722916598 4.281193130522396 -33.705016052819865 0 0 0
1077 45 2 0 3.7128093462824614 5.934349045915441 -36.35214031636938 0 0 0
3429 633 2 0 0.30289513428665293 4.043327623678638 -32.22839339655197 1 0 0
1069 43 2 0 2.659577907188974 1.4071206077423033 -35.650267505247506 0 1 0
1090 48 3 0.5564 8.568526099766558 0.8517000387929399 -29.440531113290707 0 0 0
1289 98 2 0 9.750520736084335 0.8596556225079787 -36.58459791604157 0 0 0
1290 98 3 0.5564 8.918706853166217 1.076875345553785 -37.00546598682453 0 0 0
1291 98 3 0.5564 9.525978018238492 0.7265689740269454 -35.66367599277203 0 0 0
1292 98 4 -1.1128 9.611146862186859 0.8707559957309204 -36.51862167039875 0 0 0
1453 139 2 0 6.512497520047412 0.8253318849848357 -34.58563665813373 0 0 0
1223 81 3 0.5564 3.868442590346109 2.59714669182352 -36.43583850134082 0 0 0
1456 139 4 -1.1128 6.365464810230493 0.8413999027224267 -34.54064375813967 0 0 0
1317 105 2 0 4.389481269884693 3.3840906250767184 -29.170017757861714 0 0 0
1318 105 3 0.5564 3.8709247527271846 2.7918107887204666 -29.714565653697576 0 0 0
1319 105 3 0.5564 4.691746204627611 2.8392314766136315 -28.443386424611543 0 0 0
1320 105 4 -1.1128 4.360944130332828 3.234058462301858 -29.145993982153165 0 0 0
1221 81 2 0 4.600127277693296 3.156876855066506 -36.695777608744024 0 0 0
1436 134 4 -1.1128 3.628935941360599 8.311048386690276 -25.413960210095336 0 0 0
1365 117 2 0 4.402233871362727 4.773552410113217 -31.856146705101974 0 0 0
1366 117 3 0.5564 4.609238634192556 4.3220410815497 -31.037907604811263 0 0 0
1367 117 3 0.5564 4.079214068845672 5.631757297230244 -31.581608445818734 0 0 0
1368 117 4 -1.1128 4.38692704647056 4.827210859072366 -31.711967538898886 0 0 0
1375 119 3 0.5564 10.140904140380687 3.576148558977898 -32.885948096201254 0 0 0
1079 45 3 0.5564 2.8624386440609326 5.507198226151456 -36.45529322654798 0 0 0
1389 123 2 0 7.669564165661693 8.259557025011208 -30.717603048068565 0 0 0
1390 123 3 0.5564 8.301886341190173 8.35363520336447 -30.005179971805127 0 0 0
1392 123 4 -1.1128 7.643147983950758 8.249096525088161 -30.565636198771834 0 0 0
1409 128 2 0 8.007864150967567 4.207497143182757 -36.33786370678668 0 0 0
1410 128 3 0.5564 8.056119013302038 3.2943567505363895 -36.620838561639246 0 0 0
1411 128 3 0.5564 8.898174311600242 4.540769758138944 -36.44969330436532 0 0 0
1412 128 4 -1.1128 8.131696806588787 4.1309903854585635 -36.38995352752289 0 0 0
1448 137 4 -1.1128 3.810177554776369 6.6517317429930225 -28.063205116524777 0 0 0
1642 186 3 0.5564 2.2338752836966487 0.5756205199629014 -27.820131462833416 0 0 0
1446 137 3 0.5564 4.273935163436967 6.262059955924868 -27.437057753939428 0 0 0
1429 133 2 0 4.6436903590719005 2.637797960886929 -33.64119132255731 0 0 0
1430 133 3 0.5564 4.360837093384005 3.281030633595065 -32.991210987662186 0 0 0
1431 133 3 0.5564 4.5299760741714366 3.08050293146023 -34.48220859190391 0 0 0
1432 133 4 -1.1128 4.591367918195816 2.7810747066806996 -33.666396407272785 0 0 0
1789 223 2 0 5.75320537268155 5.645242884145935 -26.774699095196553 0 0 0
1547 162 3 0.5564 2.528689850519096 1.2029631811750496 -25.833758694254186 0 0 0
1416 129 4 -1.1128 10.637788738710238 14.706560630191204 -28.959796693788455 0 0 0
1382 121 3 0.5564 9.81599470289097 6.016216491898673 -31.45397298306524 0 0 0
1445 137 2 0 3.656879187944254 6.632348918260765 -28.068212793831396 0 0 0
1080 45 4 -1.1128 3.588602055074708 5.9876888063308735 -36.42716417104014 0 0 0
3575 669 3 0.5564 2.541058158843758 7.41674282869797 -31.96406992487959 1 0 0
1188 72 4 -1.1128 7.094293102205375 1.6148918143067783 -36.887671326579735 0 0 0
1224 81 4 -1.1128 4.452615489921204 3.197861536947996 -36.674290675055076 0 0 0
1546 162 3 0.5564 1.7128039327747164 2.330265309703777 -25.23759320528242 0 0 0
1171 68 3 0.5564 1.1724452558219536 6.337048992844331 -25.853314099518688 0 0 0
1790 223 3 0.5564 6.032429790682048 5.503972364772967 -27.679301240699402 0 0 0
3441 636 2 0 8.76205954876309 3.472369395185934 -26.96782850764521 0 0 0
1191 73 3 0.5564 10.453988564653683 16.54122063564935 -36.07869799765359 0 0 0
3507 652 3 0.5564 3.198445706266866 11.677889990856919 -25.59101355207767 1 0 0
1187 72 3 0.5564 6.953711302463461 1.2567798802548091 -36.106026687903785 0 0 0
1428 132 4 -1.1128 5.169149590417388 6.160426392647258 -34.03559504217046 0 0 0
1427 132 3 0.5564 5.03117509567432 5.647864135616598 -33.344784856686765 0 0 0
1159 65 3 0.5564 6.702030034327716 2.5256439081739606 -26.87519622542802 0 0 0
1072 43 4 -1.1128 2.536127257715177 1.3363029627042962 -35.589885734026666 0 1 0
1454 139 3 0.5564 6.122576305479302 1.557652698370073 -34.108251750944156 0 0 0
1641 186 2 0 2.379274117299362 0.09492507093490953 -27.005257398102724 0 0 0
3576 669 4 -1.1128 3.0330830838793994 7.013087934630609 -31.3691330034004 1 0 0
1391 123 3 0.5564 6.837025786500588 8.086195564705628 -30.278223567204346 0 0 0
3573 669 2 0 3.18469746212659 7.042574857780215 -31.362442586979395 1 0 0
1447 137 3 0.5564 4.2017177423299295 7.149546151672146 -28.661413137987253 0 0 0
1437 135 2 0 1.695389728434542 1.8686109093284955 -28.91379574205455 0 1 0
1240 85 4 -1.1128 7.211699168492734 18.477290302495753 -25.631042778311187 0 0 0
1439 135 3 0.5564 2.1932206321063155 1.4644363006846979 -29.624454558911843 0 1 0
1440 135 4 -1.1128 1.6405843126671973 1.8066449924318364 -29.044401069456327 0 1 0
1644 186 4 -1.1128 2.2631384244974906 0.07771373194305473 -27.105842837742546 0 0 0
1092 48 4 -1.1128 8.872410001940283 1.5936976921575239 -29.781221291166617 0 0 0
1089 48 2 0 8.79160311530791 1.7244106342653749 -29.764323544621814 0 0 0
1425 132 2 0 5.266467242543321 6.279988764493591 -34.02396431462766 0 0 0
1071 43 3 0.5564 2.3910150483403316 1.3792673890441396 -34.73193920558822 0 1 0
1364 116 4 -1.1128 5.004396980605189 0.2931578892786973 -27.987585537727846 0 1 0
1154 64 3 0.5564 1.1327523984632646 7.8845184377729645 -34.003449385149864 0 0 0
1792 223 4 -1.1128 5.800840550856829 5.75122748070847 -26.876676127373834 0 0 0
3633 684 2 0 7.0531920876686875 2.845469016957993 -31.751184867956347 1 0 0
1381 121 2 0 9.168525697302629 5.337738555751378 -31.262452086388706 0 0 0
1070 43 3 0.5564 1.9924710828072163 0.8982255486285042 -36.110944160367744 0 1 0
1362 116 3 0.5564 4.2675956142786395 0.0006778793260378002 -27.626261678485957 0 1 0
1153 64 2 0 1.079409607128415 7.213556645377293 -33.32286618181777 0 0 0
1426 132 3 0.5564 4.764159570168561 6.005914138295175 -34.79129656238455 0 0 0
3636 684 4 -1.1128 7.0854332599026435 2.7010568648283195 -31.706387578638168 1 0 0
1361 116 2 0 5.049321158392824 0.23825748453929976 -28.124949739067045 0 1 0
1222 81 3 0.5564 4.213775662066199 4.0272422760161986 -36.792860769062074 0 0 0
3635 684 3 0.5564 7.6073677818578025 2.5683020607248976 -31.021598371889905 1 0 0
1238 85 3 0.5564 7.866114029481318 18.894016669596706 -26.0273457754991 0 0 0
1363 116 3 0.5564 5.490552817872858 0.8919438055186402 -27.58251311296495 0 1 0
3471 643 3 0.5564 4.041275767601295 0.9055977479517886 -31.43727049098079 1 0 0
3634 684 3 0.5564 6.743381956072472 2.028092743052235 -32.14123920534576 1 0 0
3442 636 3 0.5564 9.471729775558108 3.494526403686442 -27.609783267013 0 0 0
1384 121 4 -1.1128 9.204796058839303 5.397730312406262 -31.400243994741338 0 0 0
1383 121 3 0.5564 8.795960694522913 5.113956226188339 -32.11529759677093 0 0 0
1078 45 3 0.5564 3.6217755495027166 6.765777987700041 -36.817615814657856 0 0 0
3444 636 4 -1.1128 8.821445118533319 3.596097180323768 -27.039003989996573 0 0 0
1791 223 3 0.5564 5.8350223284110925 6.58980260706428 -26.64301161479104 0 0 0
1091 48 3 0.5564 9.627139881692411 1.6064084416117093 -30.216189090385885 0 0 0
3591 673 3 0.5564 2.0002098679980387 5.516897659987799 -34.01390283230314 1 0 0
1063 41 3 0.5564 10.539213390445733 5.7545994628773744 -35.8075245664398 0 0 0
1438 135 3 0.5564 0.7821720590477317 1.8031271558582538 -29.19303406902848 0 1 0
1796 224 4 -1.1128 5.980136033751192 12.34046490863517 -25.02308551056339 0 0 0
1119 55 3 0.5564 1.724499974338964 9.581964503139734 -35.82798850472776 0 0 0
1360 115 4 -1.1128 1.4150135945774232 1.4289752602306505 -33.14880689412146 0 0 0
1357 115 2 0 1.5517578863095698 1.3621747453119295 -33.1216067124076 0 0 0
1668 192 4 -1.1128 4.748196075304739 14.875666662998407 -25.621439913846107 0 0 0
1186 72 3 0.5564 6.544870848374954 2.209735414179961 -37.209030968703296 0 0 0
3592 673 4 -1.1128 1.9487969552442066 4.686090870794937 -34.27098751160793 1 0 0
3589 673 2 0 1.9758568784149897 4.572729583557483 -34.169409270267266 1 0 0
1117 55 2 0 1.010931031834881 8.9719286841298 -35.64116147049968 0 0 0
1120 55 4 -1.1128 1.0000613518801467 9.120847924087393 -35.68123727402417 0 0 0
3399 625 3 0.5564 3.8210274600101064 9.325775296544416 -37.018369381115384 1 0 0
3443 636 3 0.5564 8.502490455434824 4.387982564648618 -26.865334182947784 0 0 0
1164 66 4 -1.1128 7.36928743353862 7.908725495557065 -33.44415909728778 0 0 0
1314 104 3 0.5564 9.296585000882592 7.173711820320138 -34.41546787668164 0 0 0
3397 625 2 0 4.362849555163595 8.552948023325293 -36.85900972539227 1 0 0
3400 625 4 -1.1128 4.408721433750552 8.692191471847359 -36.908083066409425 1 0 0
1163 66 3 0.5564 7.32062692310615 7.9705662680289375 -32.57652806137186 0 0 0
3398 625 3 0.5564 5.252348444968147 8.835488817636676 -37.0715917130732 1 0 0
1162 66 3 0.5564 6.8831126960359175 7.329051961478902 -33.87611796037953 0 0 0
3531 658 3 0.5564 8.641947582788317 9.079654562421112 -28.119466577061768 0 0 0
1115 54 3 0.5564 6.991678226864316 5.655600789082821 -36.78250311886832 0 0 0
3529 658 2 0 9.223496612705215 8.427861834528748 -28.510868726480155 0 0 0
1304 101 4 -1.1128 8.74416303934804 6.309507623331312 -26.765235165433904 0 0 0
3532 658 4 -1.1128 9.13628599902835 8.41288890069109 -28.384096173794653 0 0 0
1433 134 2 0 3.587669681399967 8.206675713715189 -25.30763711324006 0 0 0
1301 101 2 0 8.78957001348394 6.285144590754898 -26.910994588263105 0 0 0
3590 673 3 0.5564 1.7464085746366422 4.487760872802166 -35.094807817373244 1 0 0
3530 658 3 0.5564 9.144050114277979 7.662584727893734 -27.941423486928553 0 0 0
1545 162 2 0 2.5466768154466104 1.8691599303648834 -25.14667279179252 0 0 0
1161 66 2 0 7.4651480453578305 8.00153868529961 -33.52224632358928 0 0 0
1303 101 3 0.5564 9.340046518528828 6.453549133714864 -26.14624351490395 0 0 0
1316 104 4 -1.1128 10.131094523431218 7.110748361252556 -34.657552986710975 0 0 0
1323 106 3 0.5564 1.1993056571951626 4.834016786653148 -30.521830961453993 0 0 0
1449 138 2 0 8.757042148214781 8.677262325126055 -36.815374231371806 0 0 0
1452 138 4 -1.1128 8.754603752218808 8.53290873015426 -36.760081792072334 0 0 0
1450 138 3 0.5564 8.063121210483294 8.024907314155142 -36.91095324967079 0 0 0
1548 162 4 -1.1128 2.434283891606517 1.8421005276041176 -25.24932160763033 0 0 0
1435 134 3 0.5564 4.471142719368372 8.504899439254247 -25.523893159649067 0 0 0
1293 99 2 0 9.458986362734583 0.7399704848723776 -33.89011252600888 0 1 0
1295 99 3 0.5564 9.546835379688657 1.551062324633882 -33.38947168209728 0 1 0
1296 99 4 -1.1128 9.346042126773469 0.8269338132000448 -33.83026155200398 0 1 0
1106 52 3 0.5564 2.36373910491837 7.8635139978996795 -27.556103727807137 0 0 0
3431 633 3 0.5564 0.9765915721726339 4.309075167719599 -32.85428478434696 1 0 0
1359 115 3 0.5564 1.3622244137983304 2.2968572944534102 -33.203302930363044 0 0 0
1665 192 2 0 4.723423077407291 14.875346087749735 -25.46883796167418 0 0 0
1434 134 3 0.5564 3.016966066274186 8.699523936981354 -25.897235866126906 0 0 0
3472 643 4 -1.1128 3.2097190418575963 0.8590607222349586 -31.181685949179215 1 0 0
1451 138 3 0.5564 9.432481747704097 8.235517928308163 -36.300717149207664 0 0 0
1358 115 3 0.5564 0.7048651539045043 0.9337934339528554 -33.24606887042266 0 0 0
3469 643 2 0 3.176265750797658 0.8123605972727381 -31.038154992080152 1 0 0
1086 47 3 0.5564 6.891599082099462 19.23729516214392 -37.31224991037477 0 -1 0
1607 177 3 0.5564 6.802572408722069 8.686261430397069 -25.24522208342234 0 0 0
1108 52 4 -1.1128 1.8975587830407115 8.599254832312923 -27.574463274940783 0 0 0
1105 52 2 0 1.7635394216927838 8.606875392762122 -27.497769742994908 0 0 0
1313 104 2 0 10.170035411640901 7.135333541942965 -34.80513461197598 0 0 0
1606 177 3 0.5564 6.665441233820345 8.851859417544633 -26.743776572762926 0 0 0
1608 177 4 -1.1128 6.424653217562432 8.468596062049745 -25.999393558138465 0 0 0
1605 177 2 0 6.313759906642898 8.360889258226237 -26.001147982097578 0 0 0
1767 217 3 0.5564 8.731377329512831 2.988820004609198 -25.294608718613752 0 0 0
1130 58 3 0.5564 0.5139830061794869 5.6074765951597225 -36.53730806181858 0 0 0
1321 106 2 0 1.4913429228190493 5.362506329695402 -29.77910509326177 0 0 0
1132 58 4 -1.1128 1.000630247324726 4.919191201998747 -36.75733856231109 0 0 0
3302 601 3 0.5564 3.730095643398043 17.939909890715775 -25.479397845688386 1 0 0
1322 106 3 0.5564 0.8262460066214093 6.045660929257614 -29.694402306640768 0 0 0
1350 113 3 0.5564 10.463132160667405 18.397661279844154 -27.18927954194012 0 0 0
1114 54 3 0.5564 5.950370577322927 6.703791490654399 -36.45255184648772 0 0 0
3492 648 4 -1.1128 0.024731504899164522 9.95354635376756 -25.59328559458386 1 0 0
3298 600 3 0.5564 0.3940499187755656 8.266438606765867 -28.65470702850078 1 0 0
1643 186 3 0.5564 1.6444455291846012 19.218779695793756 -26.952750699169936 0 -1 0
3490 648 3 0.5564 0.7885433303677916 10.302488922440332 -25.361323701285887 1 0 0
1107 52 3 0.5564 2.179112874644753 9.292478262967686 -28.020719153997035 0 0 0
1111 53 3 0.5564 6.764472740663861 9.649344607303721 -33.977399987905486 0 0 0
3628 682 4 -1.1128 10.572217999739557 16.82311591275233 -31.11816057824629 0 0 0
1667 192 3 0.5564 5.392347239760067 15.35966938858417 -25.95278019189335 0 0 0
1324 106 4 -1.1128 1.3650602843012571 5.382912571364334 -29.86592352742142 0 0 0
1666 192 3 0.5564 4.242260933271297 14.393452523353748 -26.141511924708436 0 0 0
3432 633 4 -1.1128 0.28290406811819757 4.094476658611751 -32.37291084705142 1 0 0
1118 55 3 0.5564 0.21497750858202258 9.490596672446587 -35.75808103095372 0 0 0
3537 660 2 0 0.2092402058639004 12.782608654917103 -36.60479633480334 1 0 0
1351 113 3 0.5564 10.439550843460562 19.532516068502105 -26.187560150025032 0 0 0
984 21 7 -0.5083 8.91586624414534 9.854279689879297 -25.484393104477444 0 0 0
1134 59 3 0.5564 3.0305710940868065 9.883808312121507 -32.652473273382384 0 0 0
3470 643 3 0.5564 2.5648083105295596 1.073077770175396 -31.726903880568916 1 0 0
1174 69 3 0.5564 3.83506001751789 19.676951218571148 -34.822639153258756 0 -1 0
1237 85 2 0 7.080000067439519 18.552540532927942 -25.601144457260038 0 0 0
1190 73 3 0.5564 10.464761629876179 15.403167462726293 -35.08039337146702 0 0 0
1141 61 2 0 0.6305059997976256 19.532547419152493 -36.286900036766276 0 -1 0
1259 90 3 0.5564 0.3416414068254776 16.74569029464882 -36.05491744238503 0 0 0
1342 111 3 0.5564 2.5152801714560695 11.939993581545885 -33.38682115177986 0 0 0
3517 655 2 0 3.6198281128175522 17.87913971606516 -31.29078009717985 1 -1 0
1300 100 4 -1.1128 4.39666376727044 14.641998474479358 -33.406846639040886 0 0 0
1299 100 3 0.5564 4.982569773767134 14.515830652638654 -34.03912155803032 0 0 0
1284 96 4 -1.1128 6.021754652715337 11.257767423696773 -30.575825193325 0 0 0
1239 85 3 0.5564 7.29207328942174 17.640720217661354 -25.40155152631005 0 0 0
3540 660 4 -1.1128 0.21780905010949997 12.936438871173085 -36.59199010682892 1 0 0
1370 118 3 0.5564 5.291052572450495 11.91449078111137 -26.857269335465087 0 0 0
1455 139 3 0.5564 5.788013507868616 0.21479542130334295 -34.72200681437219 0 0 0
1341 111 2 0 2.673573338703328 12.558569038511084 -34.09993850126953 0 0 0
1511 153 3 0.5564 5.1126562350730005 4.656002222080927 -25.470056151425663 0 0 0
1349 113 2 0 10.055134196158509 18.67487672846107 -26.368963789985635 0 0 0
1335 109 3 0.5564 4.284533185602562 18.474590520085844 -36.17762225137948 0 0 0
3508 652 4 -1.1128 2.530895361098112 11.581788518151182 -25.03954570667881 1 0 0
1263 91 3 0.5564 7.659543334680707 14.077991713937465 -36.064668263003156 0 0 0
3541 661 2 0 5.266221222271399 14.488313702691842 -28.686726224656535 1 0 0
1344 111 4 -1.1128 2.7410332000544795 12.555196566617946 -33.96087393518667 0 0 0
3385 622 2 0 2.236704063016964 14.086926208692079 -26.751365700976056 1 0 0
3558 665 3 0.5564 3.892344943988732 13.105621318329963 -31.615788476411417 1 -1 0
3505 652 2 0 2.4736005135273236 11.440753447872806 -25.01257221240361 1 0 0
1265 92 2 0 0.31524443299197913 15.713959790664099 -28.64304180285595 0 0 0
3312 603 4 -1.1128 9.578374421868988 12.408213183822692 -33.20091882393969 0 0 0
1209 78 2 0 8.038095689283441 18.90884988119921 -29.71659576105388 0 0 0
1211 78 3 0.5564 7.860258064884 18.811997705617788 -30.65212882425 0 0 0
1212 78 4 -1.1128 8.042677072917177 18.77932374126235 -29.80087594850655 0 0 0
3693 699 2 0 0.1967121762713866 3.2637715387533097 -25.43825989194102 1 0 0
1298 100 3 0.5564 4.642439452324893 14.943031897626511 -32.6271358390103 0 0 0
3608 677 4 -1.1128 9.629076132427484 9.490297662920742 -32.35569931823721 0 0 0
1143 61 3 0.5564 0.7369322177284594 18.62599392957261 -36.57510639958209 0 -1 0
3606 677 3 0.5564 8.944391367210152 9.28012904896667 -31.859703686313026 0 0 0
3337 610 2 0 0.798677549912523 14.09388543639845 -32.77280243191466 1 0 0
1241 86 2 0 1.0677557915138127 16.899258802038776 -31.31430994788394 0 0 0
1387 122 3 0.5564 8.525020506731208 16.602414367636996 -35.04029978295319 0 0 0
1267 92 3 0.5564 1.1330318982769407 16.20852365710877 -28.696510677260804 0 0 0
3559 665 3 0.5564 3.230556680320022 13.16387548342392 -30.255444418343888 1 -1 0
1244 86 4 -1.1128 0.9545233021181974 16.89490191364471 -31.41947924411052 0 0 0
1210 78 3 0.5564 8.2506570011775 18.023984400037957 -29.419847642550764 0 0 0
1386 122 3 0.5564 7.322714450788574 17.392396012325715 -35.51176808400702 0 0 0
1262 91 3 0.5564 8.885002831297893 14.519117531531492 -36.83638728259691 0 0 0
1402 126 3 0.5564 8.904456260470388 15.701969421163565 -28.861728889979254 0 -1 0
1352 113 4 -1.1128 10.159684017782366 18.751456858875294 -26.453260755673366 0 0 0
1139 60 3 0.5564 7.75394971729712 17.070094373274298 -33.134203894841235 0 0 0
1294 99 3 0.5564 8.515098937437726 0.5879999232559202 -33.93712479747557 0 1 0
1085 47 2 0 6.9444614978843635 18.322102915845562 -37.03682769955516 0 -1 0
1087 47 3 0.5564 6.135452743808545 17.926678403867076 -37.36143972652779 0 -1 0
3976 769 4 -1.1128 8.51802663596063 13.02148961709234 -27.157129830632954 0 0 0
3975 769 3 0.5564 8.545040141467203 13.112460465805379 -28.02313809624287 0 0 0
1247 87 3 0.5564 7.415130539246701 11.259818287894186 -27.797816343525426 0 0 0