LAMMPS data file via write_data, version 29 Aug 2024, timestep = 10000, units = real

5476 atoms
7 atom types

0 21.363 xlo xhi
0 19.735 ylo yhi
-50 50 zlo zhi

Masses

1 12
2 15.9994
3 1.008
4 1e-100
5 39.0983
6 14.0067
7 15.9994

Atoms # full

1 0 1 0 7.833 3.7 -40 0 0 0
3 0 1 0 3.561 8.634 -40 0 0 0
43 0 1 0 3.561 8.634 -47.15932 0 0 0
41 0 1 0 7.833 3.7 -47.15932 0 0 0
23 0 1 0 3.561 8.634 -43.57966 0 0 0
21 0 1 0 7.833 3.7 -43.57966 0 0 0
104 0 1 0 4.985 6.167 -47.15932 0 0 0
102 0 1 0 9.257 1.233 -47.15932 0 0 0
101 0 1 0 0.712 1.233 -47.15932 0 0 0
84 0 1 0 4.985 6.167 -43.57966 0 0 0
82 0 1 0 9.257 1.233 -43.57966 0 0 0
81 0 1 0 0.712 1.233 -43.57966 0 0 0
68 0 1 0 4.985 6.167 -40 0 0 0
66 0 1 0 9.257 1.233 -40 0 0 0
65 0 1 0 0.712 1.233 -40 0 0 0
164 0 1 0 4.985 8.634 -47.15932 0 0 0
162 0 1 0 9.257 3.7 -47.15932 0 0 0
161 0 1 0 0.712 3.7 -47.15932 0 0 0
144 0 1 0 4.985 8.634 -43.57966 0 0 0
142 0 1 0 9.257 3.7 -43.57966 0 0 0
141 0 1 0 0.712 3.7 -43.57966 0 0 0
128 0 1 0 4.985 8.634 -40 0 0 0
126 0 1 0 9.257 3.7 -40 0 0 0
125 0 1 0 0.712 3.7 -40 0 0 0
226 0 1 0 2.848 9.867 -47.15932 0 0 0
224 0 1 0 7.121 4.934 -47.15932 0 0 0
221 0 1 0 2.848 0 -47.15932 0 0 0
206 0 1 0 2.848 9.867 -43.57966 0 0 0
204 0 1 0 7.121 4.934 -43.57966 0 0 0
201 0 1 0 2.848 0 -43.57966 0 0 0
189 0 1 0 2.848 9.867 -40 0 0 0
187 0 1 0 7.121 4.934 -40 0 0 0
184 0 1 0 2.848 0 -40 0 0 0
284 0 1 0 7.121 7.4 -47.15932 0 0 0
281 0 1 0 2.848 2.467 -47.15932 0 0 0
264 0 1 0 7.121 7.4 -43.57966 0 0 0
261 0 1 0 2.848 2.467 -43.57966 0 0 0
248 0 1 0 7.121 7.4 -40 0 0 0
245 0 1 0 2.848 2.467 -40 0 0 0
347 0 1 0 9.97 9.867 -47.15932 0 0 0
346 0 1 0 1.424 9.867 -47.15932 0 0 0
344 0 1 0 5.697 4.934 -47.15932 0 0 0
342 0 1 0 9.97 0 -47.15932 0 0 0
341 0 1 0 1.424 0 -47.15932 0 0 0
327 0 1 0 9.97 9.867 -43.57966 0 0 0
326 0 1 0 1.424 9.867 -43.57966 0 0 0
324 0 1 0 5.697 4.934 -43.57966 0 0 0
311 0 1 0 9.97 9.867 -40 0 0 0
310 0 1 0 1.424 9.867 -40 0 0 0
308 0 1 0 5.697 4.934 -40 0 0 0
306 0 1 0 9.97 0 -40 0 0 0
305 0 1 0 1.424 0 -40 0 0 0
303 0 1 0 9.97 0 -43.57966 0 0 0
302 0 1 0 1.424 0 -43.57966 0 0 0
361 0 1 0 5.697 7.4 -43.57966 0 0 0
404 0 1 0 5.697 7.4 -47.15932 0 0 0
402 0 1 0 9.97 2.467 -47.15932 0 0 0
401 0 1 0 1.424 2.467 -47.15932 0 0 0
385 0 1 0 9.97 2.467 -43.57966 0 0 0
384 0 1 0 1.424 2.467 -43.57966 0 0 0
367 0 1 0 5.697 7.4 -40 0 0 0
365 0 1 0 9.97 2.467 -40 0 0 0
364 0 1 0 1.424 2.467 -40 0 0 0
425 0 1 0 3.561 1.233 -40 0 0 0
464 0 1 0 7.833 6.167 -47.15932 0 0 0
461 0 1 0 3.561 1.233 -47.15932 0 0 0
428 0 1 0 7.833 6.167 -40 0 0 0
448 0 1 0 7.833 6.167 -43.57966 0 0 0
445 0 1 0 3.561 1.233 -43.57966 0 0 0
485 0 1 0 3.561 3.7 -40 0 0 0
524 0 1 0 7.833 8.634 -47.15932 0 0 0
488 0 1 0 7.833 8.634 -40 0 0 0
521 0 1 0 3.561 3.7 -47.15932 0 0 0
508 0 1 0 7.833 8.634 -43.57966 0 0 0
505 0 1 0 3.561 3.7 -43.57966 0 0 0
584 0 1 0 9.257 6.167 -47.15932 0 0 0
583 0 1 0 0.712 6.167 -47.15932 0 0 0
581 0 1 0 4.985 1.233 -47.15932 0 0 0
567 0 1 0 9.257 6.167 -43.57966 0 0 0
566 0 1 0 0.712 6.167 -43.57966 0 0 0
564 0 1 0 4.985 1.233 -43.57966 0 0 0
547 0 1 0 9.257 6.167 -40 0 0 0
546 0 1 0 0.712 6.167 -40 0 0 0
544 0 1 0 4.985 1.233 -40 0 0 0
644 0 1 0 9.257 8.634 -47.15932 0 0 0
643 0 1 0 0.712 8.634 -47.15932 0 0 0
628 0 1 0 9.257 8.634 -43.57966 0 0 0
627 0 1 0 0.712 8.634 -43.57966 0 0 0
625 0 1 0 4.985 3.7 -43.57966 0 0 0
608 0 1 0 9.257 8.634 -40 0 0 0
607 0 1 0 0.712 8.634 -40 0 0 0
605 0 1 0 4.985 3.7 -40 0 0 0
604 0 1 0 4.985 3.7 -47.15932 0 0 0
706 0 1 0 7.121 9.867 -47.15932 0 0 0
705 0 1 0 7.121 0 -47.15932 0 0 0
690 0 1 0 7.121 9.867 -43.57966 0 0 0
687 0 1 0 2.848 4.934 -43.57966 0 0 0
685 0 1 0 7.121 0 -43.57966 0 0 0
670 0 1 0 7.121 9.867 -40 0 0 0
667 0 1 0 2.848 4.934 -40 0 0 0
665 0 1 0 7.121 0 -40 0 0 0
662 0 1 0 2.848 4.934 -47.15932 0 0 0
767 0 1 0 2.848 7.4 -47.15932 0 0 0
765 0 1 0 7.121 2.467 -47.15932 0 0 0
747 0 1 0 2.848 7.4 -43.57966 0 0 0
745 0 1 0 7.121 2.467 -43.57966 0 0 0
727 0 1 0 2.848 7.4 -40 0 0 0
725 0 1 0 7.121 2.467 -40 0 0 0
830 0 1 0 5.697 9.867 -47.15932 0 0 0
828 0 1 0 9.97 4.934 -47.15932 0 0 0
827 0 1 0 1.424 4.934 -47.15932 0 0 0
825 0 1 0 5.697 0 -47.15932 0 0 0
810 0 1 0 5.697 9.867 -43.57966 0 0 0
808 0 1 0 9.97 4.934 -43.57966 0 0 0
807 0 1 0 1.424 4.934 -43.57966 0 0 0
805 0 1 0 5.697 0 -43.57966 0 0 0
790 0 1 0 5.697 9.867 -40 0 0 0
788 0 1 0 9.97 4.934 -40 0 0 0
787 0 1 0 1.424 4.934 -40 0 0 0
785 0 1 0 5.697 0 -40 0 0 0
888 0 1 0 9.97 7.4 -47.15932 0 0 0
887 0 1 0 1.424 7.4 -47.15932 0 0 0
885 0 1 0 5.697 2.467 -47.15932 0 0 0
868 0 1 0 9.97 7.4 -43.57966 0 0 0
867 0 1 0 1.424 7.4 -43.57966 0 0 0
865 0 1 0 5.697 2.467 -43.57966 0 0 0
848 0 1 0 9.97 7.4 -40 0 0 0
847 0 1 0 1.424 7.4 -40 0 0 0
845 0 1 0 5.697 2.467 -40 0 0 0
905 0 1 0 7.833 1.233 -40 0 0 0
907 0 1 0 3.561 6.167 -40 0 0 0
947 0 1 0 3.561 6.167 -47.15932 0 0 0
945 0 1 0 7.833 1.233 -47.15932 0 0 0
927 0 1 0 3.561 6.167 -43.57966 0 0 0
925 0 1 0 7.833 1.233 -43.57966 0 0 0
832 0 1 0 1.424 14.801 -47.15932 0 0 0
813 0 1 0 9.97 14.801 -43.57966 0 0 0
812 0 1 0 1.424 14.801 -43.57966 0 0 0
793 0 1 0 9.97 14.801 -40 0 0 0
910 0 1 0 7.833 11.101 -40 0 0 0
792 0 1 0 1.424 14.801 -40 0 0 0
870 0 1 0 5.697 12.334 -43.57966 0 0 0
952 0 1 0 3.561 16.034 -47.15932 0 0 0
890 0 1 0 5.697 12.334 -47.15932 0 0 0
893 0 1 0 9.97 17.268 -47.15932 0 0 0
912 0 1 0 3.561 16.034 -40 0 0 0
873 0 1 0 9.97 17.268 -43.57966 0 0 0
850 0 1 0 5.697 12.334 -40 0 0 0
932 0 1 0 3.561 16.034 -43.57966 0 0 0
950 0 1 0 7.833 11.101 -47.15932 0 0 0
852 0 1 0 1.424 17.268 -40 0 0 0
853 0 1 0 9.97 17.268 -40 0 0 0
930 0 1 0 7.833 11.101 -43.57966 0 0 0
872 0 1 0 1.424 17.268 -43.57966 0 0 0
892 0 1 0 1.424 17.268 -47.15932 0 0 0
48 0 1 0 3.561 18.501 -47.15932 0 0 0
46 0 1 0 7.833 13.568 -47.15932 0 0 0
6 0 1 0 7.833 13.568 -40 0 0 0
8 0 1 0 3.561 18.501 -40 0 0 0
28 0 1 0 3.561 18.501 -43.57966 0 0 0
26 0 1 0 7.833 13.568 -43.57966 0 0 0
109 0 1 0 4.985 16.034 -47.15932 0 0 0
107 0 1 0 9.257 11.101 -47.15932 0 0 0
106 0 1 0 0.712 11.101 -47.15932 0 0 0
89 0 1 0 4.985 16.034 -43.57966 0 0 0
87 0 1 0 9.257 11.101 -43.57966 0 0 0
86 0 1 0 0.712 11.101 -43.57966 0 0 0
69 0 1 0 4.985 16.034 -40 0 0 0
63 0 1 0 9.257 11.101 -40 0 0 0
62 0 1 0 0.712 11.101 -40 0 0 0
121 0 1 0 4.985 18.501 -40 0 0 0
169 0 1 0 4.985 18.501 -47.15932 0 0 0
167 0 1 0 9.257 13.568 -47.15932 0 0 0
166 0 1 0 0.712 13.568 -47.15932 0 0 0
149 0 1 0 4.985 18.501 -43.57966 0 0 0
147 0 1 0 9.257 13.568 -43.57966 0 0 0
146 0 1 0 0.712 13.568 -43.57966 0 0 0
131 0 1 0 9.257 13.568 -40 0 0 0
130 0 1 0 0.712 13.568 -40 0 0 0
229 0 1 0 7.121 14.801 -47.15932 0 0 0
209 0 1 0 7.121 14.801 -43.57966 0 0 0
192 0 1 0 7.121 14.801 -40 0 0 0
289 0 1 0 7.121 17.268 -47.15932 0 0 0
286 0 1 0 2.848 12.334 -47.15932 0 0 0
269 0 1 0 7.121 17.268 -43.57966 0 0 0
266 0 1 0 2.848 12.334 -43.57966 0 0 0
253 0 1 0 7.121 17.268 -40 0 0 0
250 0 1 0 2.848 12.334 -40 0 0 0
349 0 1 0 5.697 14.801 -47.15932 0 0 0
329 0 1 0 5.697 14.801 -43.57966 0 0 0
313 0 1 0 5.697 14.801 -40 0 0 0
409 0 1 0 5.697 17.268 -47.15932 0 0 0
407 0 1 0 9.97 12.334 -47.15932 0 0 0
406 0 1 0 1.424 12.334 -47.15932 0 0 0
389 0 1 0 5.697 17.268 -43.57966 0 0 0
387 0 1 0 9.97 12.334 -43.57966 0 0 0
372 0 1 0 5.697 17.268 -40 0 0 0
370 0 1 0 9.97 12.334 -40 0 0 0
369 0 1 0 1.424 12.334 -40 0 0 0
363 0 1 0 1.424 12.334 -43.57966 0 0 0
423 0 1 0 7.833 16.034 -43.57966 0 0 0
469 0 1 0 7.833 16.034 -47.15932 0 0 0
466 0 1 0 3.561 11.101 -47.15932 0 0 0
450 0 1 0 3.561 11.101 -43.57966 0 0 0
430 0 1 0 3.561 11.101 -40 0 0 0
433 0 1 0 7.833 16.034 -40 0 0 0
529 0 1 0 7.833 18.501 -47.15932 0 0 0
526 0 1 0 3.561 13.568 -47.15932 0 0 0
490 0 1 0 3.561 13.568 -40 0 0 0
493 0 1 0 7.833 18.501 -40 0 0 0
513 0 1 0 7.833 18.501 -43.57966 0 0 0
510 0 1 0 3.561 13.568 -43.57966 0 0 0
589 0 1 0 9.257 16.034 -47.15932 0 0 0
588 0 1 0 0.712 16.034 -47.15932 0 0 0
586 0 1 0 4.985 11.101 -47.15932 0 0 0
572 0 1 0 9.257 16.034 -43.57966 0 0 0
571 0 1 0 0.712 16.034 -43.57966 0 0 0
569 0 1 0 4.985 11.101 -43.57966 0 0 0
552 0 1 0 9.257 16.034 -40 0 0 0
551 0 1 0 0.712 16.034 -40 0 0 0
549 0 1 0 4.985 11.101 -40 0 0 0
649 0 1 0 9.257 18.501 -47.15932 0 0 0
648 0 1 0 0.712 18.501 -47.15932 0 0 0
646 0 1 0 4.985 13.568 -47.15932 0 0 0
633 0 1 0 9.257 18.501 -43.57966 0 0 0
632 0 1 0 0.712 18.501 -43.57966 0 0 0
630 0 1 0 4.985 13.568 -43.57966 0 0 0
613 0 1 0 9.257 18.501 -40 0 0 0
612 0 1 0 0.712 18.501 -40 0 0 0
610 0 1 0 4.985 13.568 -40 0 0 0
708 0 1 0 2.848 14.801 -47.15932 0 0 0
692 0 1 0 2.848 14.801 -43.57966 0 0 0
672 0 1 0 2.848 14.801 -40 0 0 0
721 0 1 0 7.121 12.334 -47.15932 0 0 0
752 0 1 0 2.848 17.268 -43.57966 0 0 0
750 0 1 0 7.121 12.334 -43.57966 0 0 0
732 0 1 0 2.848 17.268 -40 0 0 0
730 0 1 0 7.121 12.334 -40 0 0 0
723 0 1 0 2.848 17.268 -47.15932 0 0 0
781 0 1 0 9.97 14.801 -47.15932 0 0 0
3386 610 3 0.5564 2.890084943306115 2.571554904470635 -37.52454145810008 1 0 0
1062 29 3 0.5564 7.8528164304069055 3.953195187721566 -35.7350035388447 0 0 0
3304 589 4 -1.1128 9.694825321508292 0.8145239377958923 -32.5317902001154 0 1 0
1034 22 3 0.5564 6.987961549454423 9.442578737422243 -36.76382881412207 0 0 0
1360 103 4 -1.1128 0.49650554977090766 0.7801260150576843 -25.231909392886976 0 1 0
1037 23 2 0 3.3537245610388364 6.2431036761651155 -36.680479986031685 0 0 0
1040 23 4 -1.1128 3.454506432233859 6.205442620175023 -36.79150169246849 0 0 0
3586 660 3 0.5564 9.310028678754955 3.399393071193387 -26.40931630964886 0 1 0
982 9 3 0.5564 10.650810452404231 17.42056155306952 -33.296331478775805 0 -1 0
3500 638 4 -1.1128 9.43603048556917 7.235451680175384 -28.90120122828502 0 0 0
1093 37 2 0 4.42620959669418 1.1820134510674012 -34.29512104045528 0 0 0
1094 37 3 0.5564 4.2010588759939 0.9627628560944613 -35.19925875478432 0 0 0
1095 37 3 0.5564 4.457055677129258 0.33828304946612575 -33.844126355746546 0 0 0
1096 37 4 -1.1128 4.400573376491236 1.0417655657748732 -34.35490795277461 0 0 0
3530 646 3 0.5564 9.244951075561168 19.682355942724097 -25.657842357199225 0 -1 0
1357 103 2 0 0.3830856321602929 0.8812139750912013 -25.20330333364311 0 1 0
1121 44 2 0 4.414132873325488 5.5186932131523365 -34.12363370645204 0 0 0
1122 44 3 0.5564 3.6698307956300336 5.154644603482357 -33.64435121789691 0 0 0
1123 44 3 0.5564 4.0713881087415755 5.697650468702629 -34.99926433858881 0 0 0
1124 44 4 -1.1128 4.27070978172278 5.494272578084657 -34.175927199144844 0 0 0
1274 82 3 0.5564 6.932368116232671 9.389279952224907 -27.601864851084187 0 0 0
1392 111 4 -1.1128 6.7870582242778585 8.15422311006717 -26.19433285144959 0 0 0
3523 644 3 0.5564 6.359265779000092 14.009219492931146 -36.56126932994368 1 -1 0
3270 581 3 0.5564 6.209749184311282 1.1037077199197995 -26.56615058559493 0 1 0
1373 107 2 0 5.176724667370049 8.51002582064911 -36.994918630485536 0 0 0
1362 104 3 0.5564 5.878886632281265 4.162386513667864 -35.87632548968491 0 0 0
3451 626 3 0.5564 7.26658023825555 4.7615316241775005 -32.65847866135166 0 0 0
1009 16 2 0 10.643290918112607 4.133478465197546 -33.21629568026549 0 0 0
3658 678 3 0.5564 3.3875978117477112 16.798069741935187 -25.276732415319998 1 -1 0
3531 646 3 0.5564 10.42081792635548 0.7787859692226136 -25.19098641556434 0 0 0
1205 65 2 0 1.0807142443389157 0.2997938717213325 -28.61117786896114 0 0 0
1206 65 3 0.5564 0.635496684169395 0.11532252164253004 -29.438208897409794 0 0 0
1207 65 3 0.5564 0.7310662850318489 19.38594775824494 -28.00046213928077 0 -1 0
1208 65 4 -1.1128 0.9758410541710657 0.18984739815538637 -28.63971813760794 0 0 0
1209 66 2 0 8.063536014877275 1.851777544759034 -34.60604884497666 0 0 0
1211 66 3 0.5564 7.450483838961991 2.502463445073199 -34.263991005367735 0 0 0
1212 66 4 -1.1128 8.062690378091046 1.916338992730705 -34.465577266590756 0 0 0
1217 68 2 0 1.4292340804392838 5.734066183563485 -27.99046603478328 0 0 0
1218 68 3 0.5564 1.539922292981864 6.541802393066881 -27.48892938371854 0 0 0
1219 68 3 0.5564 1.7442852156768935 5.951274268297199 -28.867844007501898 0 0 0
1220 68 4 -1.1128 1.4854053980869417 5.869295571739442 -28.040053892644696 0 0 0
3372 606 4 -1.1128 0.6959416981816787 7.1052818957367325 -30.621228183384773 1 0 0
1368 105 4 -1.1128 3.5097893631084056 6.596550718025986 -30.235431750859185 0 0 0
3450 626 3 0.5564 8.690720312020996 5.267804162546571 -32.74453897269694 0 0 0
1245 75 2 0 3.2878300778100567 3.897999851006806 -28.404008496945448 0 0 0
1246 75 3 0.5564 3.313447590714073 3.0678851812554955 -27.92810718890327 0 0 0
1247 75 3 0.5564 2.591753318686977 4.397777325242803 -27.977477960459513 0 0 0
1248 75 4 -1.1128 3.199370837466073 3.85441572932091 -28.28494319077008 0 0 0
1366 105 3 0.5564 3.9100225888136393 7.367365805457812 -30.16736408651685 0 0 0
1365 105 2 0 3.3557691190410046 6.5890450102513585 -30.224359769635427 0 0 0
1277 83 2 0 2.153925244402128 4.449963913323052 -33.206993255586454 0 0 0
1278 83 3 0.5564 2.428063373904697 4.071366722705121 -32.37168425281619 0 0 0
1279 83 3 0.5564 1.4407935610969056 5.045920927136223 -32.97784894111812 0 0 0
1280 83 4 -1.1128 2.096005189597484 4.47864199472708 -33.06655111483657 0 0 0
1281 84 2 0 6.108424136289787 3.381941660728517 -33.89351284421885 0 0 0
1282 84 3 0.5564 5.372290724548525 3.9935774783331177 -33.908936969520326 0 0 0
1283 84 3 0.5564 5.700775199862424 2.515915941160484 -33.88640829804698 0 0 0
1284 84 4 -1.1128 5.957515459575384 3.3483778943910867 -33.89461051518683 0 0 0
1289 86 2 0 2.4209970074966787 2.934693307493019 -30.874629768520904 0 0 0
1290 86 3 0.5564 2.8179267108608106 3.220794372636377 -30.05193804739378 0 0 0
1291 86 3 0.5564 1.5601577679810181 2.6007013667327525 -30.622372233217597 0 0 0
1292 86 4 -1.1128 2.359789580814571 2.9283746676944475 -30.73280281159786 0 0 0
1364 104 4 -1.1128 5.716502955856879 4.237778025008617 -36.728923520733936 0 0 0
1337 98 2 0 5.742551853251267 2.112031904893283 -30.83459392130915 0 1 0
1340 98 4 -1.1128 5.842751062241915 2.1611263467909883 -30.94160333347649 0 1 0
1363 104 3 0.5564 6.3652514084346485 4.373320964480459 -37.29436962580259 0 0 0
1361 104 2 0 5.5711205741747545 4.226996849450897 -36.780390882722166 0 0 0
3447 625 3 0.5564 9.470800908580419 3.9684956646511518 -29.153928421010196 0 0 0
1349 101 2 0 7.58346493905513 7.862647384040126 -31.013648475964075 0 0 0
1350 101 3 0.5564 6.644654587383796 8.015458842782374 -30.906352350350062 0 0 0
1351 101 3 0.5564 7.652974274721111 6.930200028968036 -31.21843875692073 0 0 0
1352 101 4 -1.1128 7.468770857439077 7.7597835641686554 -31.0265116872155 0 0 0
3497 638 2 0 9.4989643610233 7.309750039254235 -28.78111691974092 0 0 0
3448 625 4 -1.1128 9.457951058446527 4.604904597039397 -29.748734518009854 0 0 0
3370 606 3 0.5564 0.21145883478650085 6.692280644107068 -31.21593993047637 1 0 0
3588 660 4 -1.1128 8.783926746418715 3.5072088415993417 -25.723336530541744 0 1 0
3445 625 2 0 9.520802584373255 4.742148963018061 -29.71534545249738 0 0 0
3498 638 3 0.5564 8.944135242640199 7.674740311698781 -29.470446613947622 0 0 0
1042 24 3 0.5564 6.364598173224037 5.257896888021186 -27.571534190310036 0 1 0
3585 660 2 0 8.635397009612262 3.465534419055219 -25.73350116481059 0 1 0
3499 638 3 0.5564 9.576798667620304 6.38163010811477 -29.00194239616576 0 0 0
1189 61 2 0 5.542876266920431 4.695880976558577 -29.47595796825725 0 1 0
1190 61 3 0.5564 4.727381217625013 4.416318601402479 -29.05997554089795 0 1 0
1191 61 3 0.5564 5.854876427862042 3.9184208883205263 -29.939035054355543 0 1 0
1192 61 4 -1.1128 5.476446016920858 4.556419249890373 -29.482171556569742 0 1 0
1104 39 4 -1.1128 0.4044054976012684 3.406144892127575 -25.821382945899984 0 0 0
1367 105 3 0.5564 3.9688815043034116 5.867612236661965 -30.36527333579895 0 0 0
3400 613 4 -1.1128 0.3961570603507103 2.793065744564826 -34.008896553555324 1 0 0
3369 606 2 0 0.6273672337964139 7.173514116648022 -30.500633544765194 1 0 0
3397 613 2 0 0.3064168444648865 2.767084082506501 -34.132074501620124 1 0 0
1084 34 4 -1.1128 2.1047934641284254 7.9885153172292656 -26.342693687950778 0 0 0
3371 606 3 0.5564 1.5630221683048897 7.137595020139744 -30.699350275152845 1 0 0
3399 613 3 0.5564 1.1154893916110091 3.2771457867974707 -34.09376852075124 1 0 0
3452 626 4 -1.1128 7.960197539004179 5.1368159140833445 -32.28829967389815 0 0 0
1338 98 3 0.5564 6.6960371670411405 2.160744699955166 -30.765880772027526 0 1 0
1339 98 3 0.5564 5.548506546750401 2.4354206831693985 -31.714363660507985 0 1 0
1286 85 3 0.5564 0.06541101954229234 17.148062817559676 -27.090403437684085 0 0 0
3388 610 4 -1.1128 3.2692571619524893 2.43766079176085 -36.7517047767188 1 0 0
3446 625 3 0.5564 9.094433600270207 4.475585843020432 -30.529828275736794 0 0 0
1210 66 3 0.5564 8.670178854695333 1.6904223189292542 -33.88343025063041 0 0 0
3449 626 2 0 7.953582826969469 5.180602048389395 -32.14017749450819 0 0 0
1111 41 3 0.5564 10.177138420183299 18.31230794586899 -30.343170414004156 0 0 0
3385 610 2 0 3.205144752897178 2.3394374064328716 -36.650992684198414 1 0 0
1041 24 2 0 6.805212520561736 5.534040049464415 -26.76789706560243 0 1 0
1391 111 3 0.5564 7.0198040335731555 7.566482686202339 -26.793804554960857 0 0 0
3532 646 4 -1.1128 9.725979809534214 0.28390296429513057 -25.0141629336785 0 0 0
3303 589 3 0.5564 10.434631784725532 1.2390246316391758 -32.354416868386686 0 1 0
1369 106 2 0 8.964407929628866 7.208001093700099 -36.35371479174334 0 0 0
1038 23 3 0.5564 4.0777484195006535 6.770467782689328 -37.01797847258825 0 0 0
1039 23 3 0.5564 3.3935568823408016 5.430295074382498 -37.18444847705852 0 0 0
1064 29 4 -1.1128 8.356543359120966 4.519441498113529 -36.16465460442677 0 0 0
992 11 4 -1.1128 7.36867608684504 0.1927747386575492 -36.63296407658144 0 1 0
1043 24 3 0.5564 7.556120451078019 4.945375333146398 -26.69147842553357 0 1 0
1389 111 2 0 6.872770527703722 8.281344269529757 -26.174463984891045 0 0 0
989 11 2 0 7.271127178004149 0.07746723454756768 -36.59995574611961 0 1 0
998 13 3 0.5564 5.492094048862798 9.36597371953651 -33.7121819497648 0 0 0
1058 28 3 0.5564 3.9882175099373915 1.1229616627590548 -29.42184889773205 0 1 0
1117 43 2 0 8.296077168910173 2.2315034563713314 -30.23616703827886 0 1 0
1118 43 3 0.5564 8.83197254223558 1.8291979689464064 -30.91968376853218 0 1 0
1120 43 4 -1.1128 8.376844633126689 2.099936779900929 -30.227921653717363 0 1 0
1061 29 2 0 8.300136462530126 4.658128732102638 -36.20319384605711 0 0 0
1142 49 3 0.5564 1.7354506521305666 7.266933115881164 -36.75197540351638 0 0 0
1044 24 4 -1.1128 6.846152122493368 5.419938784784029 -26.863845022287375 0 1 0
3387 610 3 0.5564 4.006131835674845 2.8517845525860035 -36.540771216452576 1 0 0
1029 21 2 0 4.557841521154261 6.7345943866142095 -25.625867944884746 0 0 0
1119 43 3 0.5564 8.37234275205527 1.6366254456011942 -29.49015605308516 0 1 0
1372 106 4 -1.1128 9.024241177184212 7.090183714801545 -36.273463886973005 0 0 0
1143 49 3 0.5564 0.9863879958477783 8.485109964595189 -37.24880888892138 0 0 0
1101 39 2 0 0.4691187626907532 3.4969742853180588 -25.714315795689906 0 0 0
1081 34 2 0 2.0101850869036597 8.04936226580941 -26.448750577436474 0 0 0
1102 39 3 0.5564 0.48577834156577604 2.54098159383328 -25.75936142987797 0 0 0
1144 49 4 -1.1128 0.9898846184174039 7.703400710245545 -36.86423879622734 0 0 0
1390 111 3 0.5564 6.07609763850771 8.032716268045524 -25.70571554340236 0 0 0
1083 34 3 0.5564 1.822314123803488 7.876671436810162 -25.526193773926057 0 0 0
1141 49 2 0 0.8568806175794433 7.64152169819569 -36.81543220211517 0 0 0
1060 28 4 -1.1128 3.6093741279627114 1.1235984991284198 -28.637340754196615 0 1 0
3271 581 3 0.5564 4.792207729646685 1.3963011885665884 -26.122463199688376 0 1 0
3301 589 2 0 9.559169696811828 0.8866150449214105 -32.514424032961166 0 1 0
1201 64 2 0 7.605622078666765 1.5576193773486593 -27.47697926647927 0 1 0
1204 64 4 -1.1128 7.687440823803615 1.5134151277214258 -27.353476888934846 0 1 0
1315 92 3 0.5564 9.549487470043049 9.299789882431575 -30.90170438418085 0 0 0
1231 71 3 0.5564 5.815285010173908 0.0964581920150469 -30.961110083532876 0 0 0
3539 648 3 0.5564 1.6590273520867331 1.1593963772787166 -36.294464736832346 1 0 0
1082 34 3 0.5564 2.915121458133805 7.760875730848309 -26.56747024754612 0 0 0
1371 106 3 0.5564 8.822940878967609 6.27177421381237 -36.49405359554662 0 0 0
1057 28 2 0 3.686592276200202 1.1783437515703885 -28.515105428214977 0 1 0
1302 89 3 0.5564 5.569266219737267 19.064403029429343 -25.08767820092451 0 0 0
1000 13 4 -1.1128 5.1745072025619185 8.640448799256172 -34.07512536960988 0 0 0
999 13 3 0.5564 5.1577022589982064 7.8917557529645075 -33.62998263159622 0 0 0
997 13 2 0 5.120596886568635 8.644601313030694 -34.2199618099792 0 0 0
3226 570 3 0.5564 3.7820569736891496 15.18801506694372 -36.49631868009722 1 0 0
1202 64 3 0.5564 8.004297267008962 2.1145858530716914 -26.808342507079182 0 1 0
1059 28 3 0.5564 2.7997074216430913 0.818795070644327 -28.53482033885474 0 1 0
1063 29 3 0.5564 9.174981366252846 4.311909926554358 -36.37928362433834 0 0 0
3272 581 4 -1.1128 5.529215584933276 0.9377431806921236 -26.048168411445516 0 1 0
3540 648 4 -1.1128 1.0954482496105273 0.8832924104937773 -35.6902123593627 1 0 0
990 11 3 0.5564 7.609688623490855 0.33074450537287137 -37.45870800877352 0 1 0
1313 92 2 0 10.184676928310067 10.00948191892276 -30.997099574559535 0 0 0
1316 92 4 -1.1128 10.039669093233359 10.004464030602657 -31.05047286903507 0 0 0
3302 589 3 0.5564 9.711882478201666 19.722805227379606 -32.80605461296029 0 0 0
1183 59 3 0.5564 0.6520534156144426 9.14665123995973 -30.261914286949338 0 0 0
1257 78 2 0 9.514815344033815 12.098485303287267 -36.64945284821038 0 0 0
3537 648 2 0 1.0241648109932413 0.7473286832909848 -35.70847971450844 1 0 0
1203 64 3 0.5564 7.827075821770601 0.6656155695220923 -27.209554280009648 0 1 0
3269 581 2 0 5.539337686541822 0.8258075637124452 -25.94201229664093 0 1 0
1193 62 2 0 5.102630256628287 8.665684831707742 -30.4853012397776 0 0 0
1194 62 3 0.5564 5.676333613097896 8.860275796777234 -29.7442023988739 0 0 0
1196 62 4 -1.1128 5.120664622260152 8.800897485750221 -30.412545072732843 0 0 0
3538 648 3 0.5564 0.9295809376499906 1.3657710603714484 -34.98404090133341 1 0 0
1667 180 3 0.5564 9.599679315330429 6.87830826705452 -27.181168330527882 0 0 0
1668 180 4 -1.1128 9.605827331868397 6.884465032587466 -26.310019642282995 0 0 0
1132 46 4 -1.1128 8.290505794110887 18.428490191335882 -30.4828208077844 0 0 0
3515 642 3 0.5564 0.8611645211363335 11.888908251262956 -35.63047675427629 1 0 0
3946 750 3 0.5564 8.875285938515262 14.513560901179918 -25.652662004507697 0 0 0
991 11 3 0.5564 7.671918316109991 0.6981402937087386 -35.99138356950676 0 1 0
1370 106 3 0.5564 9.559369198630684 7.25125454604469 -35.605130191215075 0 0 0
1131 46 3 0.5564 8.349798809375029 17.61230235965601 -30.183993930381217 0 0 0
1314 92 3 0.5564 9.720808295830112 10.6811418673288 -31.497027051708283 0 0 0
1031 21 3 0.5564 5.282228614900564 6.21432791572414 -25.97345220025518 0 0 0
1697 188 2 0 10.607784725075112 2.8442953810877754 -27.628360884611528 0 0 0
1665 180 2 0 9.6891104391867 6.779188782971279 -26.233325474954853 0 0 0
1032 21 4 -1.1128 4.66709046219491 6.6594806773068855 -25.54634587527138 0 0 0
3462 629 3 0.5564 3.3089269232889453 9.219140640241063 -34.13538036313343 1 0 0
1180 58 4 -1.1128 5.579778768733617 17.864793410352117 -36.401371888651155 0 0 0
1226 70 3 0.5564 7.171396052398964 11.693484383358147 -25.420387387636445 0 0 0
1195 62 3 0.5564 4.665614793255659 9.4959113278337 -30.674959160264986 0 0 0
1215 67 3 0.5564 4.660689479572605 17.44013226446582 -28.67361350189461 0 0 0
3705 690 2 0 10.489079382828324 17.304870741595487 -26.58519043934376 0 0 0
1376 107 4 -1.1128 5.110992969140043 8.605218594428885 -36.89235723585816 0 0 0
1068 30 4 -1.1128 5.042716687895796 16.058191333844558 -25.482078421028405 0 0 0
3470 631 3 0.5564 2.9739182552876864 11.495314822147375 -36.752053135164864 1 0 0
3959 753 3 0.5564 1.3591832145121476 13.193210470129253 -25.334448752224976 1 0 0
1310 91 3 0.5564 10.025081977017464 17.14786756050762 -36.403570597451335 0 0 0
1175 57 3 0.5564 8.660765269659805 15.114989475460515 -30.176884277910005 0 0 0
1162 54 3 0.5564 2.7830051874691146 10.534386492209343 -32.39964464456463 0 0 0
3958 753 3 0.5564 1.3609131188742765 14.259534216125044 -26.409085382047508 1 0 0
1214 67 3 0.5564 4.661469875194911 18.903936817742807 -28.2873896927007 0 0 0
3708 690 4 -1.1128 10.402143203419573 17.431260131929932 -26.56598151639901 0 0 0
3418 618 3 0.5564 9.690860831283018 10.807607916497874 -29.374157359246546 0 0 0
1374 107 3 0.5564 5.21895531157342 8.461725105603778 -36.03987292973801 0 0 0
1182 59 3 0.5564 0.8150948377124272 10.203912160133417 -29.190695331108067 0 0 0
1359 103 3 0.5564 0.3462543500795975 0.10006811974052365 -25.75528457085029 0 1 0
1213 67 2 0 5.246092066543897 18.179873944116988 -28.511395329502616 0 0 0
1375 107 3 0.5564 4.63629366923399 9.27982126146538 -37.172620606986094 0 0 0
3603 664 3 0.5564 9.787251021674276 13.101666877330432 -29.27659899995598 0 0 0
3338 598 3 0.5564 9.786590996728163 15.622749021430415 -32.39133091368138 0 -1 0
3960 753 4 -1.1128 1.7760528491813845 13.806792765762097 -25.791299072435706 1 0 0
1216 67 4 -1.1128 5.091721008709258 18.1778053094038 -28.503243197668642 0 0 0
3469 631 2 0 3.7235860742036544 10.913947787044096 -36.62461998140567 1 0 0
3472 631 4 -1.1128 3.609682224573812 10.944764638221319 -36.524733071737664 1 0 0
1164 54 4 -1.1128 2.822427670018736 10.788757308721092 -31.567348365300624 0 0 0
3957 753 2 0 1.925177139463037 13.83562089908468 -25.762453886058637 1 0 0
3601 664 2 0 10.146409890129172 13.917897850562033 -29.62445037978305 0 0 0
3419 618 3 0.5564 9.465169136561265 11.374463855480295 -27.988649938344842 0 0 0
1173 57 2 0 7.995853053124888 15.775647036080251 -29.982843022506454 0 0 0
1255 77 3 0.5564 6.472043241269179 11.417807242030186 -34.052500595301666 0 0 0
3945 750 2 0 7.952605963230389 14.665443030814304 -25.44815733755357 0 0 0
3948 750 4 -1.1128 8.075897481561968 14.70327002494102 -25.362896091827096 0 0 0
3513 642 2 0 1.238349630684815 12.304280127054728 -36.405993533486225 1 0 0
3339 598 3 0.5564 9.659788328182838 15.20999909429737 -33.842348415609436 0 -1 0
1179 58 3 0.5564 5.730102242230684 17.20792070128744 -36.953546533398445 0 0 0
1273 82 2 0 6.850420276537257 9.631172850013092 -28.5243620350739 0 0 0
1322 94 3 0.5564 8.256963952594475 15.462994816996947 -36.138272573286265 0 0 0
3227 570 3 0.5564 2.97659240772905 16.120374895966055 -37.37599202413361 1 0 0
1287 85 3 0.5564 1.200843691881127 17.61798290178725 -26.206174411342516 0 0 0
3604 664 4 -1.1128 10.195706255052484 13.773832179263685 -29.651210625647092 0 0 0
1035 22 3 0.5564 8.303445629338176 9.040992736258094 -36.1312756311869 0 0 0
1312 91 4 -1.1128 9.158468527201816 17.22899051717827 -36.36647699423463 0 0 0
3297 588 2 0 2.734450045279751 16.482514265798184 -33.43517374615592 1 0 0
1233 72 2 0 0.8001897882386061 18.685781052520657 -33.58528328239961 0 -1 0
1234 72 3 0.5564 0.8389622033752318 19.16177333723424 -34.41483540349727 0 -1 0
1293 87 2 0 1.1759148528471437 10.472119153520925 -27.409956809417896 0 0 0
1130 46 3 0.5564 7.534017023422279 18.736826854394334 -30.785523604163885 0 0 0
3420 618 4 -1.1128 9.17644976836159 11.202496586596501 -28.792418639999074 0 0 0
1174 57 3 0.5564 7.519862222910789 15.423414910649829 -29.230783226834035 0 0 0
3707 690 3 0.5564 9.659194359744198 17.37907880345611 -26.114008214598854 0 0 0
1036 22 4 -1.1128 7.735709495141567 9.65663072960106 -36.371361624073096 0 0 0
3340 598 4 -1.1128 9.484347901110247 15.766730166325356 -33.1956282977167 0 -1 0
1033 22 2 0 7.767973715667024 9.805339308438093 -36.34404974654415 0 0 0
3514 642 3 0.5564 0.5762389570136496 12.936447061052624 -36.68564170578571 1 0 0
1025 20 2 0 0.13807104552082927 15.152244788949135 -27.44879795938482 0 0 0
3390 611 3 0.5564 0.768464422701574 15.415665997451027 -36.19345884877253 1 0 0
1161 54 2 0 2.9566507742329886 10.838228990711755 -31.50871500469335 0 0 0
3516 642 4 -1.1128 1.1012267317244844 12.332883694336994 -36.34056948194977 1 0 0
3337 598 2 0 9.398730816376487 15.892321555604113 -33.223871486997034 0 -1 0
1254 77 3 0.5564 7.5184337966031505 10.545050412874962 -34.71223958374382 0 0 0
1295 87 3 0.5564 0.2603245272049226 10.38243975680365 -27.14560734697318 0 0 0
1271 81 3 0.5564 7.166404478499643 18.57596956559931 -25.925311595474266 0 0 0
1276 82 4 -1.1128 6.973106238899856 9.649876496535649 -28.432169365918895 0 0 0
3521 644 2 0 5.413581751198728 13.874678592791719 -36.62298758211445 1 -1 0
3461 629 2 0 2.611703743815519 9.861191805690991 -34.26909205241071 1 0 0
1275 82 3 0.5564 7.698346325962139 10.014826322505503 -28.74810319054442 0 0 0
1270 81 3 0.5564 7.0732407207206975 18.066280707639827 -27.34778514261266 0 0 0
1235 72 3 0.5564 1.605818539798655 18.169194877723754 -33.567125210681915 0 -1 0
1296 87 4 -1.1128 1.1138139602689845 10.36337445034338 -27.31929684762757 0 0 0
1253 77 2 0 7.227320127604662 10.863005919128316 -33.85761346393155 0 0 0
1229 71 2 0 5.815816377419226 18.87448570765476 -30.981896105906422 0 -1 0
1230 71 3 0.5564 5.618639976088075 18.61478229921815 -30.081949283419412 0 -1 0
1232 71 4 -1.1128 5.789731154317289 18.966482190840566 -30.86041619720887 0 -1 0
1170 56 3 0.5564 7.293549209103041 11.743188254192921 -30.16566523773414 0 0 0
3471 631 3 0.5564 3.6099422835318986 10.56615095592155 -35.74011383105798 1 0 0
3330 596 3 0.5564 2.433962825562846 14.641103821939383 -33.58413244777884 1 0 0
1294 87 3 0.5564 1.6208237950004762 9.737589666697959 -26.987167094453586 0 0 0
1333 97 2 0 9.312748803597646 12.119456388781833 -32.68371884102417 0 0 0
1334 97 3 0.5564 9.753487523351053 12.3673910181855 -33.49643433697129 0 0 0
1335 97 3 0.5564 8.604227492654182 11.539266002487372 -32.96229619920395 0 0 0
1336 97 4 -1.1128 9.277418028867341 12.075619135406296 -32.82770214413062 0 0 0
3329 596 2 0 2.6736582851964594 13.736716323846336 -33.78626610856803 1 0 0
3331 596 3 0.5564 2.278997337710594 13.569397938802252 -34.64211420925869 1 0 0