LAMMPS data file via write_data, version 29 Aug 2024, timestep = 10000, units = real

5432 atoms
6 atom types

0 21.363 xlo xhi
0 19.735 ylo yhi
-50 50 zlo zhi

Masses

1 12
2 15.9994
3 1.008
4 1e-100
5 39.0983
6 79.904

Atoms # full

1 0 1 0 7.833 3.7 -40 0 0 0
3 0 1 0 3.561 8.634 -40 0 0 0
43 0 1 0 3.561 8.634 -47.15932 0 0 0
41 0 1 0 7.833 3.7 -47.15932 0 0 0
23 0 1 0 3.561 8.634 -43.57966 0 0 0
21 0 1 0 7.833 3.7 -43.57966 0 0 0
104 0 1 0 4.985 6.167 -47.15932 0 0 0
102 0 1 0 9.257 1.233 -47.15932 0 0 0
101 0 1 0 0.712 1.233 -47.15932 0 0 0
84 0 1 0 4.985 6.167 -43.57966 0 0 0
82 0 1 0 9.257 1.233 -43.57966 0 0 0
81 0 1 0 0.712 1.233 -43.57966 0 0 0
68 0 1 0 4.985 6.167 -40 0 0 0
66 0 1 0 9.257 1.233 -40 0 0 0
65 0 1 0 0.712 1.233 -40 0 0 0
164 0 1 0 4.985 8.634 -47.15932 0 0 0
162 0 1 0 9.257 3.7 -47.15932 0 0 0
161 0 1 0 0.712 3.7 -47.15932 0 0 0
144 0 1 0 4.985 8.634 -43.57966 0 0 0
142 0 1 0 9.257 3.7 -43.57966 0 0 0
141 0 1 0 0.712 3.7 -43.57966 0 0 0
128 0 1 0 4.985 8.634 -40 0 0 0
126 0 1 0 9.257 3.7 -40 0 0 0
125 0 1 0 0.712 3.7 -40 0 0 0
226 0 1 0 2.848 9.867 -47.15932 0 0 0
224 0 1 0 7.121 4.934 -47.15932 0 0 0
221 0 1 0 2.848 0 -47.15932 0 0 0
206 0 1 0 2.848 9.867 -43.57966 0 0 0
204 0 1 0 7.121 4.934 -43.57966 0 0 0
201 0 1 0 2.848 0 -43.57966 0 0 0
189 0 1 0 2.848 9.867 -40 0 0 0
187 0 1 0 7.121 4.934 -40 0 0 0
184 0 1 0 2.848 0 -40 0 0 0
284 0 1 0 7.121 7.4 -47.15932 0 0 0
281 0 1 0 2.848 2.467 -47.15932 0 0 0
264 0 1 0 7.121 7.4 -43.57966 0 0 0
261 0 1 0 2.848 2.467 -43.57966 0 0 0
248 0 1 0 7.121 7.4 -40 0 0 0
245 0 1 0 2.848 2.467 -40 0 0 0
347 0 1 0 9.97 9.867 -47.15932 0 0 0
346 0 1 0 1.424 9.867 -47.15932 0 0 0
344 0 1 0 5.697 4.934 -47.15932 0 0 0
342 0 1 0 9.97 0 -47.15932 0 0 0
341 0 1 0 1.424 0 -47.15932 0 0 0
327 0 1 0 9.97 9.867 -43.57966 0 0 0
326 0 1 0 1.424 9.867 -43.57966 0 0 0
324 0 1 0 5.697 4.934 -43.57966 0 0 0
311 0 1 0 9.97 9.867 -40 0 0 0
310 0 1 0 1.424 9.867 -40 0 0 0
308 0 1 0 5.697 4.934 -40 0 0 0
306 0 1 0 9.97 0 -40 0 0 0
305 0 1 0 1.424 0 -40 0 0 0
303 0 1 0 9.97 0 -43.57966 0 0 0
302 0 1 0 1.424 0 -43.57966 0 0 0
361 0 1 0 5.697 7.4 -43.57966 0 0 0
404 0 1 0 5.697 7.4 -47.15932 0 0 0
402 0 1 0 9.97 2.467 -47.15932 0 0 0
401 0 1 0 1.424 2.467 -47.15932 0 0 0
385 0 1 0 9.97 2.467 -43.57966 0 0 0
384 0 1 0 1.424 2.467 -43.57966 0 0 0
367 0 1 0 5.697 7.4 -40 0 0 0
365 0 1 0 9.97 2.467 -40 0 0 0
364 0 1 0 1.424 2.467 -40 0 0 0
425 0 1 0 3.561 1.233 -40 0 0 0
464 0 1 0 7.833 6.167 -47.15932 0 0 0
461 0 1 0 3.561 1.233 -47.15932 0 0 0
428 0 1 0 7.833 6.167 -40 0 0 0
448 0 1 0 7.833 6.167 -43.57966 0 0 0
445 0 1 0 3.561 1.233 -43.57966 0 0 0
485 0 1 0 3.561 3.7 -40 0 0 0
524 0 1 0 7.833 8.634 -47.15932 0 0 0
488 0 1 0 7.833 8.634 -40 0 0 0
521 0 1 0 3.561 3.7 -47.15932 0 0 0
508 0 1 0 7.833 8.634 -43.57966 0 0 0
505 0 1 0 3.561 3.7 -43.57966 0 0 0
584 0 1 0 9.257 6.167 -47.15932 0 0 0
583 0 1 0 0.712 6.167 -47.15932 0 0 0
581 0 1 0 4.985 1.233 -47.15932 0 0 0
567 0 1 0 9.257 6.167 -43.57966 0 0 0
566 0 1 0 0.712 6.167 -43.57966 0 0 0
564 0 1 0 4.985 1.233 -43.57966 0 0 0
547 0 1 0 9.257 6.167 -40 0 0 0
546 0 1 0 0.712 6.167 -40 0 0 0
544 0 1 0 4.985 1.233 -40 0 0 0
644 0 1 0 9.257 8.634 -47.15932 0 0 0
643 0 1 0 0.712 8.634 -47.15932 0 0 0
628 0 1 0 9.257 8.634 -43.57966 0 0 0
627 0 1 0 0.712 8.634 -43.57966 0 0 0
625 0 1 0 4.985 3.7 -43.57966 0 0 0
608 0 1 0 9.257 8.634 -40 0 0 0
607 0 1 0 0.712 8.634 -40 0 0 0
605 0 1 0 4.985 3.7 -40 0 0 0
604 0 1 0 4.985 3.7 -47.15932 0 0 0
706 0 1 0 7.121 9.867 -47.15932 0 0 0
705 0 1 0 7.121 0 -47.15932 0 0 0
690 0 1 0 7.121 9.867 -43.57966 0 0 0
687 0 1 0 2.848 4.934 -43.57966 0 0 0
685 0 1 0 7.121 0 -43.57966 0 0 0
670 0 1 0 7.121 9.867 -40 0 0 0
667 0 1 0 2.848 4.934 -40 0 0 0
665 0 1 0 7.121 0 -40 0 0 0
662 0 1 0 2.848 4.934 -47.15932 0 0 0
767 0 1 0 2.848 7.4 -47.15932 0 0 0
765 0 1 0 7.121 2.467 -47.15932 0 0 0
747 0 1 0 2.848 7.4 -43.57966 0 0 0
745 0 1 0 7.121 2.467 -43.57966 0 0 0
727 0 1 0 2.848 7.4 -40 0 0 0
725 0 1 0 7.121 2.467 -40 0 0 0
830 0 1 0 5.697 9.867 -47.15932 0 0 0
828 0 1 0 9.97 4.934 -47.15932 0 0 0
827 0 1 0 1.424 4.934 -47.15932 0 0 0
825 0 1 0 5.697 0 -47.15932 0 0 0
810 0 1 0 5.697 9.867 -43.57966 0 0 0
808 0 1 0 9.97 4.934 -43.57966 0 0 0
807 0 1 0 1.424 4.934 -43.57966 0 0 0
805 0 1 0 5.697 0 -43.57966 0 0 0
790 0 1 0 5.697 9.867 -40 0 0 0
788 0 1 0 9.97 4.934 -40 0 0 0
787 0 1 0 1.424 4.934 -40 0 0 0
785 0 1 0 5.697 0 -40 0 0 0
888 0 1 0 9.97 7.4 -47.15932 0 0 0
887 0 1 0 1.424 7.4 -47.15932 0 0 0
885 0 1 0 5.697 2.467 -47.15932 0 0 0
868 0 1 0 9.97 7.4 -43.57966 0 0 0
867 0 1 0 1.424 7.4 -43.57966 0 0 0
865 0 1 0 5.697 2.467 -43.57966 0 0 0
848 0 1 0 9.97 7.4 -40 0 0 0
847 0 1 0 1.424 7.4 -40 0 0 0
845 0 1 0 5.697 2.467 -40 0 0 0
905 0 1 0 7.833 1.233 -40 0 0 0
907 0 1 0 3.561 6.167 -40 0 0 0
947 0 1 0 3.561 6.167 -47.15932 0 0 0
945 0 1 0 7.833 1.233 -47.15932 0 0 0
927 0 1 0 3.561 6.167 -43.57966 0 0 0
925 0 1 0 7.833 1.233 -43.57966 0 0 0
730 0 1 0 7.121 12.334 -40 0 0 0
723 0 1 0 2.848 17.268 -47.15932 0 0 0
781 0 1 0 9.97 14.801 -47.15932 0 0 0
813 0 1 0 9.97 14.801 -43.57966 0 0 0
832 0 1 0 1.424 14.801 -47.15932 0 0 0
792 0 1 0 1.424 14.801 -40 0 0 0
812 0 1 0 1.424 14.801 -43.57966 0 0 0
950 0 1 0 7.833 11.101 -47.15932 0 0 0
873 0 1 0 9.97 17.268 -43.57966 0 0 0
893 0 1 0 9.97 17.268 -47.15932 0 0 0
853 0 1 0 9.97 17.268 -40 0 0 0
890 0 1 0 5.697 12.334 -47.15932 0 0 0
793 0 1 0 9.97 14.801 -40 0 0 0
892 0 1 0 1.424 17.268 -47.15932 0 0 0
870 0 1 0 5.697 12.334 -43.57966 0 0 0
932 0 1 0 3.561 16.034 -43.57966 0 0 0
852 0 1 0 1.424 17.268 -40 0 0 0
930 0 1 0 7.833 11.101 -43.57966 0 0 0
912 0 1 0 3.561 16.034 -40 0 0 0
872 0 1 0 1.424 17.268 -43.57966 0 0 0
910 0 1 0 7.833 11.101 -40 0 0 0
850 0 1 0 5.697 12.334 -40 0 0 0
952 0 1 0 3.561 16.034 -47.15932 0 0 0
48 0 1 0 3.561 18.501 -47.15932 0 0 0
46 0 1 0 7.833 13.568 -47.15932 0 0 0
6 0 1 0 7.833 13.568 -40 0 0 0
8 0 1 0 3.561 18.501 -40 0 0 0
28 0 1 0 3.561 18.501 -43.57966 0 0 0
26 0 1 0 7.833 13.568 -43.57966 0 0 0
109 0 1 0 4.985 16.034 -47.15932 0 0 0
107 0 1 0 9.257 11.101 -47.15932 0 0 0
106 0 1 0 0.712 11.101 -47.15932 0 0 0
89 0 1 0 4.985 16.034 -43.57966 0 0 0
87 0 1 0 9.257 11.101 -43.57966 0 0 0
86 0 1 0 0.712 11.101 -43.57966 0 0 0
69 0 1 0 4.985 16.034 -40 0 0 0
63 0 1 0 9.257 11.101 -40 0 0 0
62 0 1 0 0.712 11.101 -40 0 0 0
121 0 1 0 4.985 18.501 -40 0 0 0
169 0 1 0 4.985 18.501 -47.15932 0 0 0
167 0 1 0 9.257 13.568 -47.15932 0 0 0
166 0 1 0 0.712 13.568 -47.15932 0 0 0
149 0 1 0 4.985 18.501 -43.57966 0 0 0
147 0 1 0 9.257 13.568 -43.57966 0 0 0
146 0 1 0 0.712 13.568 -43.57966 0 0 0
131 0 1 0 9.257 13.568 -40 0 0 0
130 0 1 0 0.712 13.568 -40 0 0 0
229 0 1 0 7.121 14.801 -47.15932 0 0 0
209 0 1 0 7.121 14.801 -43.57966 0 0 0
192 0 1 0 7.121 14.801 -40 0 0 0
289 0 1 0 7.121 17.268 -47.15932 0 0 0
286 0 1 0 2.848 12.334 -47.15932 0 0 0
269 0 1 0 7.121 17.268 -43.57966 0 0 0
266 0 1 0 2.848 12.334 -43.57966 0 0 0
253 0 1 0 7.121 17.268 -40 0 0 0
250 0 1 0 2.848 12.334 -40 0 0 0
349 0 1 0 5.697 14.801 -47.15932 0 0 0
329 0 1 0 5.697 14.801 -43.57966 0 0 0
313 0 1 0 5.697 14.801 -40 0 0 0
409 0 1 0 5.697 17.268 -47.15932 0 0 0
407 0 1 0 9.97 12.334 -47.15932 0 0 0
406 0 1 0 1.424 12.334 -47.15932 0 0 0
389 0 1 0 5.697 17.268 -43.57966 0 0 0
387 0 1 0 9.97 12.334 -43.57966 0 0 0
372 0 1 0 5.697 17.268 -40 0 0 0
370 0 1 0 9.97 12.334 -40 0 0 0
369 0 1 0 1.424 12.334 -40 0 0 0
363 0 1 0 1.424 12.334 -43.57966 0 0 0
423 0 1 0 7.833 16.034 -43.57966 0 0 0
469 0 1 0 7.833 16.034 -47.15932 0 0 0
466 0 1 0 3.561 11.101 -47.15932 0 0 0
450 0 1 0 3.561 11.101 -43.57966 0 0 0
430 0 1 0 3.561 11.101 -40 0 0 0
433 0 1 0 7.833 16.034 -40 0 0 0
529 0 1 0 7.833 18.501 -47.15932 0 0 0
526 0 1 0 3.561 13.568 -47.15932 0 0 0
490 0 1 0 3.561 13.568 -40 0 0 0
493 0 1 0 7.833 18.501 -40 0 0 0
513 0 1 0 7.833 18.501 -43.57966 0 0 0
510 0 1 0 3.561 13.568 -43.57966 0 0 0
589 0 1 0 9.257 16.034 -47.15932 0 0 0
588 0 1 0 0.712 16.034 -47.15932 0 0 0
586 0 1 0 4.985 11.101 -47.15932 0 0 0
572 0 1 0 9.257 16.034 -43.57966 0 0 0
571 0 1 0 0.712 16.034 -43.57966 0 0 0
569 0 1 0 4.985 11.101 -43.57966 0 0 0
552 0 1 0 9.257 16.034 -40 0 0 0
551 0 1 0 0.712 16.034 -40 0 0 0
549 0 1 0 4.985 11.101 -40 0 0 0
649 0 1 0 9.257 18.501 -47.15932 0 0 0
648 0 1 0 0.712 18.501 -47.15932 0 0 0
646 0 1 0 4.985 13.568 -47.15932 0 0 0
633 0 1 0 9.257 18.501 -43.57966 0 0 0
632 0 1 0 0.712 18.501 -43.57966 0 0 0
630 0 1 0 4.985 13.568 -43.57966 0 0 0
613 0 1 0 9.257 18.501 -40 0 0 0
612 0 1 0 0.712 18.501 -40 0 0 0
610 0 1 0 4.985 13.568 -40 0 0 0
708 0 1 0 2.848 14.801 -47.15932 0 0 0
692 0 1 0 2.848 14.801 -43.57966 0 0 0
672 0 1 0 2.848 14.801 -40 0 0 0
721 0 1 0 7.121 12.334 -47.15932 0 0 0
752 0 1 0 2.848 17.268 -43.57966 0 0 0
750 0 1 0 7.121 12.334 -43.57966 0 0 0
732 0 1 0 2.848 17.268 -40 0 0 0
1019 45 3 0.5564 6.654544559091864 5.136437161588144 -37.54277075992353 0 0 0
962 2 5 0.85 1.174675891324262 7.087783098302152 -30.39610846040366 0 0 0
1041 51 2 0 4.216852257938191 5.625847855769012 -34.1562427292039 0 0 0
1332 123 4 -1.1128 7.705755220330211 2.587299773074624 -36.77743667453356 0 1 0
1400 140 4 -1.1128 6.469192637096342 5.155964733066603 -32.93106139681877 0 0 0
1399 140 3 0.5564 5.905042536065122 5.289072557445395 -33.58144029522768 0 0 0
1065 57 2 0 5.931743495594338 6.191206401600712 -30.455531292958366 0 0 0
1066 57 3 0.5564 5.631901805065315 5.378319705791149 -30.04866662590497 0 0 0
1067 57 3 0.5564 5.157977962542137 6.754616772958546 -30.46471444093876 0 0 0
1068 57 4 -1.1128 5.790093604178301 6.158290924233128 -30.403061876995466 0 0 0
3768 732 4 -1.1128 5.348395408223251 6.908883210724352 -27.414139254042112 0 0 0
1397 140 2 0 6.600837252864757 5.079637087670431 -32.958355089999834 0 0 0
1114 69 3 0.5564 2.0109555108795107 1.2967565087350799 -31.553117712862687 0 0 0
1043 51 3 0.5564 4.198787641795972 6.582831135090905 -34.14700424220914 0 0 0
3352 628 4 -1.1128 4.084619063934318 4.278983200625526 -36.35513587934745 1 0 0
1113 69 2 0 1.856013097507767 0.7949694959821478 -32.353387242003365 0 0 0
1115 69 3 0.5564 2.4640998942853964 1.1676067766679399 -32.99182328541557 0 0 0
1116 69 4 -1.1128 1.9566858597535264 0.910339534015215 -32.332035210108074 0 0 0
1141 76 2 0 2.4430020296762835 4.741211735835629 -31.95092164396019 0 0 0
1142 76 3 0.5564 1.7240130027799485 4.50505627198939 -32.537022363118815 0 0 0
1143 76 3 0.5564 2.44051196184805 4.05791242914917 -31.28060490245358 0 0 0
1144 76 4 -1.1128 2.3478113182298963 4.619900454067729 -31.939810326749328 0 0 0
1153 79 2 0 2.351782152264571 2.647876478513614 -27.201761808003756 0 0 0
1154 79 3 0.5564 2.8477327582980387 1.8312909166984448 -27.260495899552673 0 0 0
1155 79 3 0.5564 1.5377692943429135 2.4031462463671467 -26.761626763373375 0 0 0
1156 79 4 -1.1128 2.3098175655386943 2.5078482971911007 -27.15144042192948 0 0 0
1323 121 3 0.5564 7.9431941197744775 0.397521645675062 -26.19133500274007 0 1 0
1161 81 2 0 4.531381186666215 1.4799415442954102 -36.99765758032631 0 0 0
1253 104 2 0 0.868592585923006 5.149125036595401 -25.822538372743413 0 0 0
1164 81 4 -1.1128 4.619969011191041 1.6009283902141933 -37.035281249214165 0 0 0
1018 45 3 0.5564 6.491465071844804 6.012483446583012 -36.31890753333903 0 0 0
1329 123 2 0 7.613764758413775 2.4630561096820633 -36.77899456515751 0 1 0
1030 48 3 0.5564 9.348835610990683 4.267856676646524 -31.712361454658552 0 0 0
3226 597 3 0.5564 1.533565580892593 5.356915326953388 -37.45682158420653 1 0 0
1330 123 3 0.5564 8.562496130819907 2.491192750927619 -36.90287268805152 0 1 0
3567 682 3 0.5564 10.398678319422514 3.4613010289422834 -36.23167929387943 0 0 0
1009 43 2 0 5.2311346978439675 3.9026010201294214 -29.224503972995105 0 1 0
1398 140 3 0.5564 6.2988577460369735 5.448711849262968 -32.128402757205095 0 0 0
1072 58 4 -1.1128 6.25206765497586 8.231243327003824 -36.36222637888451 0 0 0
1222 96 3 0.5564 8.74947655059321 16.250872536932253 -25.60667005634908 0 0 0
1242 101 3 0.5564 10.55374776032631 15.310042239208917 -29.931872357632006 0 0 0
1032 48 4 -1.1128 8.800268998117783 4.942307058558303 -31.656084510176402 0 0 0
1261 106 2 0 7.912883325127229 5.677764021363225 -28.261419322573104 0 0 0
1262 106 3 0.5564 7.584906069074283 5.657919057034389 -29.16045534732561 0 0 0
1263 106 3 0.5564 8.033446803903242 6.607931626550177 -28.070418404391493 0 0 0
1264 106 4 -1.1128 7.885517507923181 5.79787042564112 -28.35483625733437 0 0 0
1301 116 2 0 6.113487841696121 2.3170375211881438 -33.18998460899748 0 0 0
1302 116 3 0.5564 6.291509139475175 3.2485807917163 -33.06050785598467 0 0 0
1303 116 3 0.5564 5.166489012874482 2.2696280514091596 -33.321035123249416 0 0 0
1304 116 4 -1.1128 6.0120302682176066 2.43368861492391 -33.19019224834988 0 0 0
1309 118 2 0 4.188481335895075 9.23598224918808 -28.68180047593261 0 0 0
1311 118 3 0.5564 3.534214276872733 9.145772545744862 -27.98896174882296 0 0 0
1312 118 4 -1.1128 4.100502784864194 9.346910363910409 -28.61970467959618 0 0 0
1317 120 2 0 2.3553120759654265 5.943551869073402 -28.204526721122665 0 0 0
1318 120 3 0.5564 3.2607633062874726 5.665398288968983 -28.06662337713355 0 0 0
1319 120 3 0.5564 1.8683729615586269 5.540764094363437 -27.48558236701387 0 0 0
1320 120 4 -1.1128 2.4105298450653265 5.85370963734139 -28.09147570886253 0 0 0
3872 758 4 -1.1128 0.8063084550238789 19.522230604864315 -26.445557598666955 1 0 0
1098 65 3 0.5564 6.494795990515163 2.815862765803864 -25.367784209762764 0 0 0
3765 732 2 0 5.348148214443883 6.85368618351704 -27.26972877283417 0 0 0
3835 749 3 0.5564 6.036021920065363 6.819213385712709 -25.639917877486866 0 0 0
1011 43 3 0.5564 4.330853074210914 3.6178167688628564 -29.0675976146818 0 1 0
1373 134 2 0 3.8207006322289034 7.788783245413907 -30.91427887168792 0 0 0
1374 134 3 0.5564 4.0848654674938185 8.325227010091055 -31.661723654965215 0 0 0
1376 134 4 -1.1128 3.883792068322613 7.929903334631368 -30.911880724301223 0 0 0
1109 68 2 0 4.6458758404355 1.4400035705336833 -27.312746221926034 0 0 0
1012 43 4 -1.1128 5.169706522957288 3.7634635750985233 -29.25222599890167 0 1 0
1042 51 3 0.5564 3.7098785931531992 5.368799224958009 -33.38609184690053 0 0 0
1070 58 3 0.5564 6.533416722262047 8.882478047504934 -36.86790590393075 0 0 0
1010 43 3 0.5564 5.665833668144426 3.1328206362769473 -29.591523921711282 0 1 0
1256 104 4 -1.1128 0.7321491646415746 5.10767021642201 -25.762823628555648 0 0 0
1353 129 2 0 0.9560939062397401 8.117621869490959 -34.46191751365212 0 0 0
3227 597 3 0.5564 2.025120844081952 6.555019873935576 -36.672722019271376 1 0 0
1029 48 2 0 8.843366857005927 5.0698832846952255 -31.580136889516375 0 0 0
1069 58 2 0 6.1521749744135334 8.127857640347607 -36.41909475467188 0 0 0
1020 45 4 -1.1128 6.6010762381151915 5.226288127824045 -36.67787557354637 0 0 0
3767 732 3 0.5564 5.682336923619299 6.42782304469295 -28.05915082126612 0 0 0
3513 669 2 0 2.5483813717198287 2.6855840338200525 -30.24469333842903 1 0 0
3516 669 4 -1.1128 2.5721237955102216 2.5929378503671043 -30.123226709249817 1 0 0
3355 629 3 0.5564 7.7608649522691 0.6973866642420415 -36.65715156762012 0 1 0
3349 628 2 0 4.006150493436149 4.188537822343435 -36.45292891075247 1 0 0
1017 45 2 0 6.611138939703961 5.1014796079528875 -36.587196273790006 0 0 0
3515 669 3 0.5564 2.1822247075777543 2.7684923948631344 -29.36419110795287 1 0 0
3351 628 3 0.5564 3.747564386582737 4.463111028371909 -35.57317243491746 1 0 0
1044 51 4 -1.1128 4.147579609758236 5.718196030019529 -34.053411435685184 0 0 0
1730 223 3 0.5564 10.009544420912825 10.012406060422986 -25.676830676576532 0 0 0
1384 136 4 -1.1128 9.15136966715771 1.6329180520608482 -26.668961550318574 0 1 0
1383 136 3 0.5564 9.791040872278202 1.2007505307154864 -26.26519463273631 0 1 0
1382 136 3 0.5564 9.159412538006658 1.7315714423443753 -27.53451256655855 0 1 0
1381 136 2 0 9.035277341818169 1.6926950932662814 -26.586194181494978 0 1 0
1331 123 3 0.5564 7.362256824915805 3.376599643189835 -36.643308719640515 0 1 0
1031 48 3 0.5564 8.011246439820841 4.904971220439917 -32.02354223371829 0 0 0
1267 107 3 0.5564 9.004064373268596 8.411454304259731 -27.861055777311893 0 0 0
1255 104 3 0.5564 0.6796394321136309 4.3998949589053264 -25.25757848633553 0 0 0
3547 677 3 0.5564 4.188661838777207 7.824481386137926 -37.140739461111636 1 0 0
1111 68 3 0.5564 5.298194643888726 1.8096914880154882 -26.717733869760664 0 0 0
1110 68 3 0.5564 5.016548510809112 0.5999763602730148 -27.583272993909556 0 0 0
1112 68 4 -1.1128 4.780847576843664 1.3779478128157099 -27.269934152307588 0 0 0
1071 58 3 0.5564 6.528049962501056 8.156828515184399 -35.53926104388254 0 0 0
1140 75 4 -1.1128 8.043458456095697 19.60470460466052 -29.81778711422325 0 0 0
1169 83 2 0 9.989972950583118 9.583457275622953 -33.95926071806088 0 0 0
1127 72 3 0.5564 6.9386998781858695 0.8620867422481019 -33.832082774017614 0 0 0
1478 160 3 0.5564 7.202018645403297 4.843228047973529 -27.09033878215352 0 0 0
1037 50 2 0 9.72031284749485 4.591568613655888 -34.6847953060172 0 0 0
3395 639 3 0.5564 2.698702795647323 3.124063775631105 -34.18457935484435 1 0 0
1125 72 2 0 6.906467420742159 19.667318026102034 -34.057293519905016 0 -1 0
1128 72 4 -1.1128 6.945347161498909 0.05059060490437044 -34.148951159314564 0 0 0
3394 639 3 0.5564 3.4112817738190295 2.0910202681948484 -35.03130571064741 1 0 0
1126 72 3 0.5564 7.1689162377430184 19.6339728347776 -34.97720514260054 0 -1 0
1162 81 3 0.5564 5.394252664318012 1.467993613418034 -37.41182993201424 0 0 0
3396 639 4 -1.1128 3.258564099771202 2.460554977300825 -34.257292046879535 1 0 0
3275 609 3 0.5564 1.32465200715972 4.928937517713402 -35.19051313146637 1 0 0
3274 609 3 0.5564 0.6426847238130603 3.6383055032413787 -34.789161866781015 1 0 0
3273 609 2 0 1.2864232973342127 4.279622961722138 -34.48826114676082 1 0 0
1137 75 2 0 8.104046848995281 19.4705180412252 -29.770625977264242 0 0 0
1387 137 3 0.5564 0.8503258099753848 1.6753115195933932 -36.364637323225985 0 0 0
3393 639 2 0 3.3315380438559714 2.4078648523308748 -34.13159513277515 1 0 0
1049 53 2 0 8.532586194949252 7.714061292402415 -31.610072949644113 0 0 0
1050 53 3 0.5564 8.777239616978035 6.788663854278591 -31.606472740839227 0 0 0
1052 53 4 -1.1128 8.471406191920694 7.600338347502171 -31.525071425936353 0 0 0
3276 609 4 -1.1128 1.2065333668643718 4.280678085019674 -34.620615390079074 1 0 0
1171 83 3 0.5564 9.286486451049512 9.012372837923541 -33.65071900792841 0 0 0
1051 53 3 0.5564 7.82423108890532 7.777518252412976 -30.969420988851297 0 0 0
1105 67 2 0 5.866905500154547 1.5265684198670764 -30.139995220689748 0 1 0
1107 67 3 0.5564 5.10823979960995 0.9623915400248747 -29.990464354415778 0 1 0
3565 682 2 0 10.221007942217472 2.640639414200327 -36.6912186589538 0 0 0
3225 597 2 0 1.285755387804764 5.951924144861584 -36.749161148889364 1 0 0
3568 682 4 -1.1128 10.358276151406733 2.696997300820234 -36.64783217071482 0 0 0
1094 64 3 0.5564 9.049884614814157 10.144553760960791 -37.03062219879273 0 0 0
1675 209 3 0.5564 9.45459843411562 3.1846831483281743 -25.874177737196952 0 0 0
1265 107 2 0 8.179472079762528 8.324469602260239 -28.339292003468422 0 0 0
1268 107 4 -1.1128 8.260122437047846 8.45360424896256 -28.31244199619064 0 0 0
1139 75 3 0.5564 7.2280198064963095 19.625885911957738 -30.1237068779861 0 0 0
3545 677 2 0 3.3477788187907707 7.839800731627304 -36.683673009430684 1 0 0
3514 669 3 0.5564 3.094489022282539 1.900482322694022 -30.20456337351687 1 0 0
1266 107 3 0.5564 7.966153153996726 9.216235311773747 -28.614023931256163 0 0 0
3546 677 3 0.5564 3.571803477437511 8.044205027937267 -35.77578506873085 1 0 0
1023 46 3 0.5564 7.28670520773445 8.409536211460013 -33.08634639580325 0 0 0
1138 75 3 0.5564 8.52085619897151 0.5971905816890819 -29.774993549007363 0 1 0
1024 46 4 -1.1128 7.105516761669328 8.903281633881978 -33.780869214542754 0 0 0
1021 46 2 0 7.146037473152062 8.854744422849828 -33.92194852233151 0 0 0
3548 677 4 -1.1128 3.4882809072019585 7.8647482749782105 -36.62419239718729 1 0 0
1599 190 3 0.5564 4.925120002217891 4.03067094284436 -25.965999612857118 0 0 0
1375 134 3 0.5564 4.034724808329867 8.321931173760392 -30.148657806510023 0 0 0
1275 109 3 0.5564 2.5444896206239873 8.4015105323103 -34.09017757614779 0 0 0
961 1 5 0.85 3.058797434331853 6.901390577687299 -25.423187181936182 0 0 0
1273 109 2 0 3.5008559924939995 8.441331161750263 -34.08765624174193 0 0 0
3228 597 4 -1.1128 1.41600164590526 5.952991118018402 -36.83244340281602 1 0 0
3350 628 3 0.5564 4.859473548329255 4.599477400634638 -36.59148252449728 1 0 0
3385 637 2 0 1.2377148240012312 18.111346553499555 -33.941015610912345 1 -1 0
1108 67 4 -1.1128 5.751188509691044 1.4957162197198566 -30.23776474489921 0 1 0
3766 732 3 0.5564 5.015833061432188 7.697904229200385 -27.5748372901216 0 0 0
1386 137 3 0.5564 1.290131599475525 2.7861072173321184 -37.294474403260644 0 0 0
1106 67 3 0.5564 5.748517250210697 1.8569071752299535 -31.03055078093318 0 1 0
1151 78 3 0.5564 3.4477194838343137 19.02122061477806 -30.969336077933797 0 0 0
1477 160 2 0 7.064844565750262 4.331019897333834 -26.29343555139736 0 0 0
1213 94 2 0 1.560855774147653 9.481639935726582 -27.403064390495434 0 0 0
1216 94 4 -1.1128 1.5966139838034246 9.612652643634434 -27.476943892448716 0 0 0
1215 94 3 0.5564 1.6161007119111008 9.625159629399455 -28.347828261142237 0 0 0
1038 50 3 0.5564 8.870549966154073 4.9198747473399544 -34.390947037380485 0 0 0
1385 137 2 0 0.5901094117836557 2.5366393163913243 -36.69118062736094 0 0 0
1039 50 3 0.5564 10.139382514544888 5.3464363563882 -35.0980554928738 0 0 0
1214 94 3 0.5564 1.7766330857130945 10.331105045534326 -27.0182555341357 0 0 0
1040 50 4 -1.1128 9.6634879252161 4.734480712800742 -34.70055030922332 0 0 0
1388 137 4 -1.1128 0.7168016400365438 2.45591157359458 -36.72769460883738 0 0 0
3260 605 4 -1.1128 10.56619334889334 13.35330667770539 -28.397163606567567 0 0 0
3493 664 2 0 2.616751768698691 10.970606025668543 -36.84932982792875 1 0 0
1163 81 3 0.5564 4.339943533498326 2.4088852486125663 -36.86864635577957 0 0 0
3258 605 3 0.5564 10.646936141197799 12.592681951373887 -28.81418443108839 0 0 0
1238 100 3 0.5564 4.3549588191849935 19.51297680174537 -36.53449174785674 0 0 0
3592 688 4 -1.1128 3.811695551437002 17.218727424252936 -31.58519684243067 1 -1 0
1078 60 3 0.5564 0.46166680861631126 14.898584972159085 -26.570618114537535 0 0 0
1356 129 4 -1.1128 0.8482031082266295 8.007309912052781 -34.45232544660422 0 0 0
1479 160 3 0.5564 7.905612954530521 4.367003774340602 -25.83731895016099 0 0 0
1480 160 4 -1.1128 7.193872613831598 4.403347411051783 -26.338398353441942 0 0 0
1073 59 2 0 1.302271886159619 9.747039634999805 -30.24451964425818 0 0 0
1354 129 3 0.5564 0.8096625489569871 7.387449483240056 -35.063278321205246 0 0 0
1676 209 4 -1.1128 9.698971173180745 3.8868388441522743 -25.42004660621871 0 0 0
3380 635 4 -1.1128 10.639808752036103 10.920653203535622 -29.538205894630373 0 0 0
3871 758 3 0.5564 0.9185170564570782 19.01479361154619 -27.144766200213496 1 0 0
1149 78 2 0 3.5165768822490504 19.65848400952678 -30.258433341058414 0 0 0
1150 78 3 0.5564 2.733531137469766 19.511676970497213 -29.7278527799987 0 0 0
1152 78 4 -1.1128 3.4041782460626346 19.55503510440788 -30.28222473893947 0 0 0
1100 65 4 -1.1128 6.017890421216259 2.1185071543587104 -25.1551061195474 0 0 0
1170 83 3 0.5564 10.238457860961383 10.095433825341887 -33.18960888849627 0 0 0
1412 143 4 -1.1128 3.5263256028988095 17.911575450647685 -26.27192262619467 0 -1 0
3690 713 3 0.5564 0.07241853367683587 8.548959094779624 -26.454509769118637 1 0 0
1310 118 3 0.5564 4.175932437893188 10.166949570399982 -28.90399644550555 0 0 0
3292 613 4 -1.1128 0.3122362531700704 14.330115400911096 -34.95586825208468 1 0 0
1410 143 3 0.5564 4.312325727979465 18.069150433700926 -26.613023299000986 0 -1 0
1597 190 2 0 4.054052854716134 4.427462836826943 -25.960813640155493 0 0 0
3869 758 2 0 0.8928918323186049 19.499173147494588 -26.319570168992872 1 0 0
1095 64 3 0.5564 7.940931671267882 10.58406800741426 -36.098450644751175 0 0 0
1278 110 3 0.5564 5.570945460586342 12.737099516727783 -37.03033634083335 0 0 0
1276 109 4 -1.1128 3.4012169902387734 8.5594768695284 -34.08380644133335 0 0 0
1093 64 2 0 8.105609507697979 10.297623365660302 -36.99681546724761 0 0 0
1096 64 4 -1.1128 8.208468231368412 10.31522063876112 -36.88274715900951 0 0 0
1322 121 3 0.5564 8.04574739218829 18.729064560606474 -25.633048117090738 0 0 0
1185 87 2 0 7.824459657827312 10.728465086147446 -29.485141838352323 0 0 0
3359 630 3 0.5564 2.1282414668878835 19.02817465686769 -36.690410601287844 1 -1 0
3360 630 4 -1.1128 1.4171261580105763 19.38866661036051 -36.339217905111994 1 -1 0
3357 630 2 0 1.432052329345803 19.49191145456765 -36.22511763537562 1 -1 0
1225 97 2 0 1.9000185806515892 15.827717661919833 -25.548013386701076 0 -1 0
1074 59 3 0.5564 0.3893534441626759 10.00699041125659 -30.121092787029383 0 0 0
3870 758 3 0.5564 0.21102509343970965 0.42331210289674726 -26.44927084278457 1 1 0
1022 46 3 0.5564 6.698251052366505 9.667830786885386 -33.68826805057679 0 0 0
1411 143 3 0.5564 2.850874247493057 18.43078129628934 -26.454039339409093 0 -1 0
1104 66 4 -1.1128 4.6048213790399295 9.696404228300663 -25.553141825139694 0 0 0
3556 679 4 -1.1128 10.247536860504795 18.468577952279702 -30.976932543522608 0 0 0
1228 97 4 -1.1128 2.054195692001439 15.838368070449281 -25.55215429650099 0 -1 0
1046 52 3 0.5564 2.056904039927636 11.800285914174648 -25.099316033318225 0 0 0
1358 130 3 0.5564 9.526144732597265 18.583535922858758 -27.771817912501707 0 0 0
1091 63 3 0.5564 0.8073494457527672 16.331683745883677 -31.307464899028403 0 0 0
1279 110 3 0.5564 6.281105872472361 11.401462375537914 -36.97001365468552 0 0 0
1190 88 3 0.5564 7.154488636252107 15.77260139873413 -32.12458098829591 0 0 0
1007 42 3 0.5564 0.8415253552754276 12.618598406960038 -34.91028508437711 0 0 0
1189 88 2 0 7.198816534173428 15.913080295575067 -33.07037662896482 0 0 0
1146 77 3 0.5564 1.3591994059142212 14.223179347998089 -30.28653534790925 0 0 0
1324 121 4 -1.1128 7.593137002653028 19.462962769554053 -25.757599291666846 0 0 0
1321 121 2 0 7.4492717683167164 19.474494559638206 -25.7021829387842 0 0 0
1394 139 3 0.5564 8.830268444699621 12.506212461198906 -37.255497124296355 0 0 0
1048 52 4 -1.1128 1.8194211361847767 11.99534799193002 -25.914502145289976 0 0 0
1187 87 3 0.5564 7.452395183941526 11.350436345981285 -28.859883127007382 0 0 0
1006 42 3 0.5564 1.9014803346745424 11.579571246425646 -35.20829718365942 0 0 0
3495 664 3 0.5564 3.370106478960576 11.440035235937414 -37.207549835706885 1 0 0
1188 87 4 -1.1128 7.899771628467745 10.831855410587238 -29.398310346999892 0 0 0
1186 87 3 0.5564 8.767336257959107 10.890120259467368 -29.45227850372621 0 0 0
3496 664 4 -1.1128 2.741092110666637 10.910795565141512 -36.919067537748035 1 0 0
3377 635 2 0 10.52270677718315 10.976880879780618 -29.454380266630185 0 0 0
1148 77 4 -1.1128 1.3278884380084068 13.363314490408449 -30.15005168269205 0 0 0
1005 42 2 0 1.2935588082230554 11.86691519381322 -34.527053064068994 0 0 0
3291 613 3 0.5564 1.0215607458349514 14.826152929004119 -34.85696791978446 1 0 0
1047 52 3 0.5564 0.9775823793571694 12.068696986036363 -26.12640583441911 0 0 0
1731 223 3 0.5564 8.936282644631284 11.021330716071231 -25.327440624059232 0 0 0
1598 190 3 0.5564 3.47246876390826 3.7337288490535236 -26.27181488842817 0 0 0
1008 42 4 -1.1128 1.314126412650323 11.928179318281009 -34.6674982160014 0 0 0
1277 110 2 0 5.418014710422314 11.80473843724927 -36.876896841264454 0 0 0
1145 77 2 0 1.4591728655453133 13.28185156817474 -30.144633990614096 0 0 0
3358 630 3 0.5564 0.6227332401622924 19.173124457648214 -36.62462500624412 1 -1 0
1035 49 3 0.5564 6.938068997435117 17.688492129622897 -36.712654176990796 0 0 0
3462 656 3 0.5564 2.7009954951300035 13.044355381788861 -27.25693484537456 1 0 0
1198 90 3 0.5564 6.136775106723479 15.197313521719154 -36.79966289989413 0 0 0
1179 85 3 0.5564 6.4908937573027785 18.743355288810516 -27.19649385661471 0 0 0
3494 664 3 0.5564 2.8058099892541484 10.047855306815261 -37.01967294342256 1 0 0
3354 629 3 0.5564 8.831004869755885 19.45180527114248 -36.226856438077334 0 0 0
1240 100 4 -1.1128 4.303093656689276 18.65503022702093 -36.39231783766958 0 0 0
1289 113 2 0 4.8427543311368115 15.34024634803655 -27.351280882418468 0 0 0
1280 110 4 -1.1128 5.5520668948528265 11.874545004931049 -36.909427057339634 0 0 0
1195 89 3 0.5564 7.869302470519313 13.42529863520909 -27.43711145241355 0 0 0
1202 91 3 0.5564 6.734421362238438 12.159943573324577 -34.697556982077984 0 0 0
1247 102 3 0.5564 10.223926696500918 2.342949955904095 -29.05718055584149 0 0 0
1201 91 2 0 7.652263280291681 12.41406667293788 -34.601555208097906 0 0 0
1193 89 2 0 7.962329568876723 14.212716461561502 -27.973346291466044 0 0 0
3554 679 3 0.5564 10.387290013313907 18.10196273108686 -31.754774479117287 0 0 0
1197 90 2 0 5.655968377224959 14.369768304988309 -36.784747135250335 0 0 0
1075 59 3 0.5564 1.6363376468782564 10.351311616212088 -30.907455626942234 0 0 0
1076 59 4 -1.1128 1.2258990585109302 9.861063699914736 -30.315701550788 0 0 0
1083 61 3 0.5564 5.664984979854657 18.580201345014753 -33.869857963363614 0 -1 0
1237 100 2 0 4.229741905715602 18.564857726843574 -36.4942472291171 0 0 0
1732 223 4 -1.1128 9.697012782766384 10.634305521933934 -25.152864288503892 0 0 0
1192 88 4 -1.1128 7.256198862029253 15.794447182171458 -32.98953967668423 0 0 0
1349 128 2 0 4.7299986077518925 13.853382748398264 -33.89670636326769 0 0 0
1122 71 3 0.5564 2.2500170086151416 16.601385101662025 -34.128280859744564 0 -1 0
3438 650 3 0.5564 10.069982077409904 7.430514208425297 -29.8112108896052 0 0 0
1239 100 3 0.5564 4.660480022782484 18.30018321085391 -35.68144912873095 0 0 0
1221 96 2 0 7.986108008211989 16.456620391086375 -26.146267096661333 0 0 0
1395 139 3 0.5564 8.391049921862976 13.121544337837484 -35.94387714092101 0 0 0
1199 90 3 0.5564 5.311448173671626 14.308404543830383 -35.893809990969 0 0 0
1147 77 3 0.5564 0.5641020767246355 12.957955830761275 -30.04379495459488 0 0 0