LAMMPS data file via write_data, version 29 Aug 2024, timestep = 10000, units = real

5432 atoms
6 atom types

0 21.363 xlo xhi
0 19.735 ylo yhi
-50 50 zlo zhi

Masses

1 12
2 15.9994
3 1.008
4 1e-100
5 39.0983
6 18.998403

Atoms # full

1 0 1 0 7.833 3.7 -40 0 0 0
3 0 1 0 3.561 8.634 -40 0 0 0
43 0 1 0 3.561 8.634 -47.15932 0 0 0
41 0 1 0 7.833 3.7 -47.15932 0 0 0
23 0 1 0 3.561 8.634 -43.57966 0 0 0
21 0 1 0 7.833 3.7 -43.57966 0 0 0
104 0 1 0 4.985 6.167 -47.15932 0 0 0
102 0 1 0 9.257 1.233 -47.15932 0 0 0
101 0 1 0 0.712 1.233 -47.15932 0 0 0
84 0 1 0 4.985 6.167 -43.57966 0 0 0
82 0 1 0 9.257 1.233 -43.57966 0 0 0
81 0 1 0 0.712 1.233 -43.57966 0 0 0
68 0 1 0 4.985 6.167 -40 0 0 0
66 0 1 0 9.257 1.233 -40 0 0 0
65 0 1 0 0.712 1.233 -40 0 0 0
164 0 1 0 4.985 8.634 -47.15932 0 0 0
162 0 1 0 9.257 3.7 -47.15932 0 0 0
161 0 1 0 0.712 3.7 -47.15932 0 0 0
144 0 1 0 4.985 8.634 -43.57966 0 0 0
142 0 1 0 9.257 3.7 -43.57966 0 0 0
141 0 1 0 0.712 3.7 -43.57966 0 0 0
128 0 1 0 4.985 8.634 -40 0 0 0
126 0 1 0 9.257 3.7 -40 0 0 0
125 0 1 0 0.712 3.7 -40 0 0 0
226 0 1 0 2.848 9.867 -47.15932 0 0 0
224 0 1 0 7.121 4.934 -47.15932 0 0 0
221 0 1 0 2.848 0 -47.15932 0 0 0
206 0 1 0 2.848 9.867 -43.57966 0 0 0
204 0 1 0 7.121 4.934 -43.57966 0 0 0
201 0 1 0 2.848 0 -43.57966 0 0 0
189 0 1 0 2.848 9.867 -40 0 0 0
187 0 1 0 7.121 4.934 -40 0 0 0
184 0 1 0 2.848 0 -40 0 0 0
284 0 1 0 7.121 7.4 -47.15932 0 0 0
281 0 1 0 2.848 2.467 -47.15932 0 0 0
264 0 1 0 7.121 7.4 -43.57966 0 0 0
261 0 1 0 2.848 2.467 -43.57966 0 0 0
248 0 1 0 7.121 7.4 -40 0 0 0
245 0 1 0 2.848 2.467 -40 0 0 0
347 0 1 0 9.97 9.867 -47.15932 0 0 0
346 0 1 0 1.424 9.867 -47.15932 0 0 0
344 0 1 0 5.697 4.934 -47.15932 0 0 0
342 0 1 0 9.97 0 -47.15932 0 0 0
341 0 1 0 1.424 0 -47.15932 0 0 0
327 0 1 0 9.97 9.867 -43.57966 0 0 0
326 0 1 0 1.424 9.867 -43.57966 0 0 0
324 0 1 0 5.697 4.934 -43.57966 0 0 0
311 0 1 0 9.97 9.867 -40 0 0 0
310 0 1 0 1.424 9.867 -40 0 0 0
308 0 1 0 5.697 4.934 -40 0 0 0
306 0 1 0 9.97 0 -40 0 0 0
305 0 1 0 1.424 0 -40 0 0 0
303 0 1 0 9.97 0 -43.57966 0 0 0
302 0 1 0 1.424 0 -43.57966 0 0 0
361 0 1 0 5.697 7.4 -43.57966 0 0 0
404 0 1 0 5.697 7.4 -47.15932 0 0 0
402 0 1 0 9.97 2.467 -47.15932 0 0 0
401 0 1 0 1.424 2.467 -47.15932 0 0 0
385 0 1 0 9.97 2.467 -43.57966 0 0 0
384 0 1 0 1.424 2.467 -43.57966 0 0 0
367 0 1 0 5.697 7.4 -40 0 0 0
365 0 1 0 9.97 2.467 -40 0 0 0
364 0 1 0 1.424 2.467 -40 0 0 0
425 0 1 0 3.561 1.233 -40 0 0 0
464 0 1 0 7.833 6.167 -47.15932 0 0 0
461 0 1 0 3.561 1.233 -47.15932 0 0 0
428 0 1 0 7.833 6.167 -40 0 0 0
448 0 1 0 7.833 6.167 -43.57966 0 0 0
445 0 1 0 3.561 1.233 -43.57966 0 0 0
485 0 1 0 3.561 3.7 -40 0 0 0
524 0 1 0 7.833 8.634 -47.15932 0 0 0
488 0 1 0 7.833 8.634 -40 0 0 0
521 0 1 0 3.561 3.7 -47.15932 0 0 0
508 0 1 0 7.833 8.634 -43.57966 0 0 0
505 0 1 0 3.561 3.7 -43.57966 0 0 0
584 0 1 0 9.257 6.167 -47.15932 0 0 0
583 0 1 0 0.712 6.167 -47.15932 0 0 0
581 0 1 0 4.985 1.233 -47.15932 0 0 0
567 0 1 0 9.257 6.167 -43.57966 0 0 0
566 0 1 0 0.712 6.167 -43.57966 0 0 0
564 0 1 0 4.985 1.233 -43.57966 0 0 0
547 0 1 0 9.257 6.167 -40 0 0 0
546 0 1 0 0.712 6.167 -40 0 0 0
544 0 1 0 4.985 1.233 -40 0 0 0
644 0 1 0 9.257 8.634 -47.15932 0 0 0
643 0 1 0 0.712 8.634 -47.15932 0 0 0
628 0 1 0 9.257 8.634 -43.57966 0 0 0
627 0 1 0 0.712 8.634 -43.57966 0 0 0
625 0 1 0 4.985 3.7 -43.57966 0 0 0
608 0 1 0 9.257 8.634 -40 0 0 0
607 0 1 0 0.712 8.634 -40 0 0 0
605 0 1 0 4.985 3.7 -40 0 0 0
604 0 1 0 4.985 3.7 -47.15932 0 0 0
706 0 1 0 7.121 9.867 -47.15932 0 0 0
705 0 1 0 7.121 0 -47.15932 0 0 0
690 0 1 0 7.121 9.867 -43.57966 0 0 0
687 0 1 0 2.848 4.934 -43.57966 0 0 0
685 0 1 0 7.121 0 -43.57966 0 0 0
670 0 1 0 7.121 9.867 -40 0 0 0
667 0 1 0 2.848 4.934 -40 0 0 0
665 0 1 0 7.121 0 -40 0 0 0
662 0 1 0 2.848 4.934 -47.15932 0 0 0
767 0 1 0 2.848 7.4 -47.15932 0 0 0
765 0 1 0 7.121 2.467 -47.15932 0 0 0
747 0 1 0 2.848 7.4 -43.57966 0 0 0
745 0 1 0 7.121 2.467 -43.57966 0 0 0
727 0 1 0 2.848 7.4 -40 0 0 0
725 0 1 0 7.121 2.467 -40 0 0 0
830 0 1 0 5.697 9.867 -47.15932 0 0 0
828 0 1 0 9.97 4.934 -47.15932 0 0 0
827 0 1 0 1.424 4.934 -47.15932 0 0 0
825 0 1 0 5.697 0 -47.15932 0 0 0
810 0 1 0 5.697 9.867 -43.57966 0 0 0
808 0 1 0 9.97 4.934 -43.57966 0 0 0
807 0 1 0 1.424 4.934 -43.57966 0 0 0
805 0 1 0 5.697 0 -43.57966 0 0 0
790 0 1 0 5.697 9.867 -40 0 0 0
788 0 1 0 9.97 4.934 -40 0 0 0
787 0 1 0 1.424 4.934 -40 0 0 0
785 0 1 0 5.697 0 -40 0 0 0
888 0 1 0 9.97 7.4 -47.15932 0 0 0
887 0 1 0 1.424 7.4 -47.15932 0 0 0
885 0 1 0 5.697 2.467 -47.15932 0 0 0
868 0 1 0 9.97 7.4 -43.57966 0 0 0
867 0 1 0 1.424 7.4 -43.57966 0 0 0
865 0 1 0 5.697 2.467 -43.57966 0 0 0
848 0 1 0 9.97 7.4 -40 0 0 0
847 0 1 0 1.424 7.4 -40 0 0 0
845 0 1 0 5.697 2.467 -40 0 0 0
905 0 1 0 7.833 1.233 -40 0 0 0
907 0 1 0 3.561 6.167 -40 0 0 0
947 0 1 0 3.561 6.167 -47.15932 0 0 0
945 0 1 0 7.833 1.233 -47.15932 0 0 0
927 0 1 0 3.561 6.167 -43.57966 0 0 0
925 0 1 0 7.833 1.233 -43.57966 0 0 0
832 0 1 0 1.424 14.801 -47.15932 0 0 0
813 0 1 0 9.97 14.801 -43.57966 0 0 0
793 0 1 0 9.97 14.801 -40 0 0 0
812 0 1 0 1.424 14.801 -43.57966 0 0 0
850 0 1 0 5.697 12.334 -40 0 0 0
870 0 1 0 5.697 12.334 -43.57966 0 0 0
872 0 1 0 1.424 17.268 -43.57966 0 0 0
853 0 1 0 9.97 17.268 -40 0 0 0
892 0 1 0 1.424 17.268 -47.15932 0 0 0
893 0 1 0 9.97 17.268 -47.15932 0 0 0
890 0 1 0 5.697 12.334 -47.15932 0 0 0
950 0 1 0 7.833 11.101 -47.15932 0 0 0
952 0 1 0 3.561 16.034 -47.15932 0 0 0
930 0 1 0 7.833 11.101 -43.57966 0 0 0
852 0 1 0 1.424 17.268 -40 0 0 0
932 0 1 0 3.561 16.034 -43.57966 0 0 0
792 0 1 0 1.424 14.801 -40 0 0 0
912 0 1 0 3.561 16.034 -40 0 0 0
910 0 1 0 7.833 11.101 -40 0 0 0
873 0 1 0 9.97 17.268 -43.57966 0 0 0
48 0 1 0 3.561 18.501 -47.15932 0 0 0
46 0 1 0 7.833 13.568 -47.15932 0 0 0
6 0 1 0 7.833 13.568 -40 0 0 0
8 0 1 0 3.561 18.501 -40 0 0 0
28 0 1 0 3.561 18.501 -43.57966 0 0 0
26 0 1 0 7.833 13.568 -43.57966 0 0 0
109 0 1 0 4.985 16.034 -47.15932 0 0 0
107 0 1 0 9.257 11.101 -47.15932 0 0 0
106 0 1 0 0.712 11.101 -47.15932 0 0 0
89 0 1 0 4.985 16.034 -43.57966 0 0 0
87 0 1 0 9.257 11.101 -43.57966 0 0 0
86 0 1 0 0.712 11.101 -43.57966 0 0 0
69 0 1 0 4.985 16.034 -40 0 0 0
63 0 1 0 9.257 11.101 -40 0 0 0
62 0 1 0 0.712 11.101 -40 0 0 0
121 0 1 0 4.985 18.501 -40 0 0 0
169 0 1 0 4.985 18.501 -47.15932 0 0 0
167 0 1 0 9.257 13.568 -47.15932 0 0 0
166 0 1 0 0.712 13.568 -47.15932 0 0 0
149 0 1 0 4.985 18.501 -43.57966 0 0 0
147 0 1 0 9.257 13.568 -43.57966 0 0 0
146 0 1 0 0.712 13.568 -43.57966 0 0 0
131 0 1 0 9.257 13.568 -40 0 0 0
130 0 1 0 0.712 13.568 -40 0 0 0
229 0 1 0 7.121 14.801 -47.15932 0 0 0
209 0 1 0 7.121 14.801 -43.57966 0 0 0
192 0 1 0 7.121 14.801 -40 0 0 0
289 0 1 0 7.121 17.268 -47.15932 0 0 0
286 0 1 0 2.848 12.334 -47.15932 0 0 0
269 0 1 0 7.121 17.268 -43.57966 0 0 0
266 0 1 0 2.848 12.334 -43.57966 0 0 0
253 0 1 0 7.121 17.268 -40 0 0 0
250 0 1 0 2.848 12.334 -40 0 0 0
349 0 1 0 5.697 14.801 -47.15932 0 0 0
329 0 1 0 5.697 14.801 -43.57966 0 0 0
313 0 1 0 5.697 14.801 -40 0 0 0
409 0 1 0 5.697 17.268 -47.15932 0 0 0
407 0 1 0 9.97 12.334 -47.15932 0 0 0
406 0 1 0 1.424 12.334 -47.15932 0 0 0
389 0 1 0 5.697 17.268 -43.57966 0 0 0
387 0 1 0 9.97 12.334 -43.57966 0 0 0
372 0 1 0 5.697 17.268 -40 0 0 0
370 0 1 0 9.97 12.334 -40 0 0 0
369 0 1 0 1.424 12.334 -40 0 0 0
363 0 1 0 1.424 12.334 -43.57966 0 0 0
423 0 1 0 7.833 16.034 -43.57966 0 0 0
469 0 1 0 7.833 16.034 -47.15932 0 0 0
466 0 1 0 3.561 11.101 -47.15932 0 0 0
450 0 1 0 3.561 11.101 -43.57966 0 0 0
430 0 1 0 3.561 11.101 -40 0 0 0
433 0 1 0 7.833 16.034 -40 0 0 0
529 0 1 0 7.833 18.501 -47.15932 0 0 0
526 0 1 0 3.561 13.568 -47.15932 0 0 0
490 0 1 0 3.561 13.568 -40 0 0 0
493 0 1 0 7.833 18.501 -40 0 0 0
513 0 1 0 7.833 18.501 -43.57966 0 0 0
510 0 1 0 3.561 13.568 -43.57966 0 0 0
589 0 1 0 9.257 16.034 -47.15932 0 0 0
588 0 1 0 0.712 16.034 -47.15932 0 0 0
586 0 1 0 4.985 11.101 -47.15932 0 0 0
572 0 1 0 9.257 16.034 -43.57966 0 0 0
571 0 1 0 0.712 16.034 -43.57966 0 0 0
569 0 1 0 4.985 11.101 -43.57966 0 0 0
552 0 1 0 9.257 16.034 -40 0 0 0
551 0 1 0 0.712 16.034 -40 0 0 0
549 0 1 0 4.985 11.101 -40 0 0 0
649 0 1 0 9.257 18.501 -47.15932 0 0 0
648 0 1 0 0.712 18.501 -47.15932 0 0 0
646 0 1 0 4.985 13.568 -47.15932 0 0 0
633 0 1 0 9.257 18.501 -43.57966 0 0 0
632 0 1 0 0.712 18.501 -43.57966 0 0 0
630 0 1 0 4.985 13.568 -43.57966 0 0 0
613 0 1 0 9.257 18.501 -40 0 0 0
612 0 1 0 0.712 18.501 -40 0 0 0
610 0 1 0 4.985 13.568 -40 0 0 0
708 0 1 0 2.848 14.801 -47.15932 0 0 0
692 0 1 0 2.848 14.801 -43.57966 0 0 0
672 0 1 0 2.848 14.801 -40 0 0 0
721 0 1 0 7.121 12.334 -47.15932 0 0 0
752 0 1 0 2.848 17.268 -43.57966 0 0 0
750 0 1 0 7.121 12.334 -43.57966 0 0 0
732 0 1 0 2.848 17.268 -40 0 0 0
730 0 1 0 7.121 12.334 -40 0 0 0
723 0 1 0 2.848 17.268 -47.15932 0 0 0
781 0 1 0 9.97 14.801 -47.15932 0 0 0
981 21 6 -0.85 6.719658939337541 6.440785353340744 -29.97053182643887 0 0 0
1041 51 2 0 5.074046548042334 6.648441230868539 -34.25504245099047 0 0 0
1042 51 3 0.5564 5.235771058865273 6.507478168711928 -35.18788931656194 0 0 0
1043 51 3 0.5564 5.920895682406971 6.923187941966626 -33.90348951718584 0 0 0
1044 51 4 -1.1128 5.207116020925859 6.666092415519284 -34.33173737303181 0 0 0
1049 53 2 0 3.680991760575414 5.3769352347484585 -27.666508878073476 0 0 0
1050 53 3 0.5564 3.328740380008987 6.101291413417106 -28.183670137463178 0 0 0
1052 53 4 -1.1128 3.7344610427148135 5.432237105548213 -27.800612938241475 0 0 0
1207 92 3 0.5564 1.5359730486304137 8.096476833658224 -30.217013747450423 0 0 0
1069 58 2 0 5.584014216064583 5.911414563676034 -36.94183601319064 0 0 0
3403 641 3 0.5564 0.9681382621110842 13.531259031468661 -30.495235494539617 1 0 0
1072 58 4 -1.1128 5.734852162962235 5.886940542452818 -36.96529013992486 0 0 0
1392 138 4 -1.1128 7.0486334173268395 3.379518914536657 -36.82212699849521 0 0 0
3580 685 4 -1.1128 2.9061107476587043 1.6329925563198435 -28.982008184928674 1 0 0
1097 65 2 0 4.248774782288804 7.007691633449512 -25.54765208249964 0 0 0
1730 223 3 0.5564 5.923335152072291 7.719273137316171 -25.276105048380288 0 0 0
1100 65 4 -1.1128 4.120779946374631 6.970713939065568 -25.626081235863374 0 0 0
3539 675 3 0.5564 6.7872840692251755 3.2459059817512275 -35.0144128623879 1 0 0
1004 41 4 -1.1128 9.838704812543913 3.505118047607226 -36.51341658243238 0 0 0
1114 69 3 0.5564 7.6897225254978725 8.837928780014158 -31.889351901947425 0 0 0
1117 70 2 0 8.994558701782562 1.1197803953213625 -34.71189259331649 0 0 0
1119 70 3 0.5564 8.152480465720982 0.8710978790681949 -34.33072343485611 0 0 0
1120 70 4 -1.1128 8.886901240602386 1.2128017528037678 -34.65141071086919 0 0 0
1141 76 2 0 9.310243454997789 6.060398350485117 -30.394007082018938 0 0 0
1142 76 3 0.5564 9.368668523076435 5.826389309342254 -31.320319641030988 0 0 0
1143 76 3 0.5564 8.373373272662963 6.036973808039924 -30.199188630215232 0 0 0
1144 76 4 -1.1128 9.194342916778353 6.026433006026597 -30.490519156995394 0 0 0
1389 138 2 0 6.937910641751737 3.487241841746782 -36.81601161443305 0 0 0
3325 622 2 0 2.9164472471306433 3.249134255452712 -34.84939527694872 1 1 0
1177 85 2 0 9.037224841849735 4.704423258121215 -32.721778383727354 0 0 0
1178 85 3 0.5564 9.055240943620603 3.956429265816961 -32.12477831299558 0 0 0
1179 85 3 0.5564 9.913176454859537 4.725054267164814 -33.10715068427759 0 0 0
1180 85 4 -1.1128 9.155173405297106 4.608456236536508 -32.69385657954385 0 0 0
1388 137 4 -1.1128 7.761903628293535 7.7573845499417535 -36.41147957935883 0 0 0
1391 138 3 0.5564 7.8733960298089 3.5983178683728854 -36.6464301238732 0 0 0
1002 41 3 0.5564 10.274033879341486 2.8069678664754663 -36.79986146209833 0 0 0
1221 96 2 0 8.215034183234408 3.6544495839990785 -28.114992372022137 0 0 0
1222 96 3 0.5564 8.233049531097496 3.7731480503788064 -27.165353073014096 0 0 0
1223 96 3 0.5564 7.3015623430064345 3.8047079047538834 -28.358344608614438 0 0 0
1224 96 4 -1.1128 8.09688919303197 3.6899352801237097 -28.0218060712016 0 0 0
3400 640 4 -1.1128 0.5211830916180256 0.650688644850206 -30.045888313976306 1 1 0
1245 102 2 0 3.250225175551329 5.862118014241953 -32.33909795282703 0 0 0
1384 136 4 -1.1128 8.22342000786905 7.553358262176547 -27.924705023211306 0 0 0
1248 102 4 -1.1128 3.3454216346886017 5.979420934933465 -32.3062525731677 0 0 0
1118 70 3 0.5564 9.020668589121733 2.073499818712839 -34.63465133407669 0 0 0
1071 58 3 0.5564 6.28698178146397 6.56081373041861 -36.96043711881479 0 0 0
1382 136 3 0.5564 8.715004467651099 8.234264390667867 -28.156410232440177 0 0 0
1381 136 2 0 8.229760213127594 7.5002143036824105 -27.77966474786389 0 0 0
1019 45 3 0.5564 10.191679678988555 8.327147253695578 -34.38037278316913 0 0 0
1003 41 3 0.5564 10.188734368695435 4.3008877845738995 -36.57003439277817 0 0 0
1205 92 2 0 1.8429663898038784 8.958019452826491 -30.49937536086801 0 0 0
1341 126 2 0 7.2547057253258425 7.203590058964314 -32.45904821536724 0 0 0
1342 126 3 0.5564 7.11889553884295 6.8953868629947825 -31.56305990063222 0 0 0
1343 126 3 0.5564 7.961480938486614 6.653850670303994 -32.79740317619535 0 0 0
1344 126 4 -1.1128 7.3300378693864 7.090394589257396 -32.385475029293296 0 0 0
1345 127 2 0 8.552958997054155 0.8734751723781125 -28.005201145770982 0 1 0
1348 127 4 -1.1128 8.654931185000502 0.9896127616703029 -28.009060321697902 0 1 0
1349 128 2 0 3.218475280980799 3.3892370705373063 -31.141058322591253 0 0 0
1350 128 3 0.5564 3.152550987561958 4.272596169654469 -31.503769456200548 0 0 0
1351 128 3 0.5564 3.824844493785159 2.9344237133733118 -31.72560076314475 0 0 0
1352 128 4 -1.1128 3.2897806545530344 3.4457786590076047 -31.266037330720536 0 0 0
1247 102 3 0.5564 3.381409599198068 6.291047811694697 -31.4934984301512 0 0 0
3464 656 4 -1.1128 1.095564297060831 7.21693845517683 -25.568486510107032 1 0 0
1037 50 2 0 9.380740436355108 2.5592616035988156 -31.348107306358614 0 0 0
1246 102 3 0.5564 3.8405634101108728 6.32226241051163 -32.93575244271101 0 0 0
3538 675 3 0.5564 7.016220129655729 3.854563058559882 -33.64729251176583 1 0 0
3349 628 2 0 1.6036514525139218 7.19317479647007 -35.37782943439884 1 0 0
1051 53 3 0.5564 4.438502947349237 5.07172860412846 -28.165762712748826 0 0 0
3308 617 4 -1.1128 4.185318917481814 6.923486031731089 -30.012289423405324 1 0 0
1099 65 3 0.5564 4.170562155923728 6.415807808490044 -26.29583989296467 0 0 0
1385 137 2 0 7.705345063546248 7.632495914157248 -36.48292968366676 0 0 0
1169 83 2 0 5.255693520864162 2.346017142797156 -26.934441259698982 0 1 0
1171 83 3 0.5564 5.973904060907503 2.78613719397107 -26.479802240668096 0 1 0
1172 83 4 -1.1128 5.367258082202752 2.4334794614121904 -26.996124737841928 0 1 0
3307 617 3 0.5564 4.023285061711298 7.695685998581152 -29.642927836771186 1 0 0
3397 640 2 0 0.5437116459657446 0.6974503785814482 -29.90026220197214 1 1 0
3558 680 3 0.5564 10.128668798658843 9.805061765203757 -28.78552043244564 0 0 0
3489 663 2 0 9.860581111111106 5.701978909422301 -26.585825509014256 0 0 0
1070 58 3 0.5564 6.024292916233065 5.076519413049141 -37.101000803699044 0 0 0
3305 617 2 0 4.0675766364259855 6.83366807343328 -30.05668142289828 1 0 0
1383 136 3 0.5564 7.696461631865725 7.168958296936858 -28.502223228624526 0 0 0
1293 114 2 0 6.394798634694612 19.72146987990547 -34.23793575400503 0 -1 0
1001 41 2 0 9.69794191708397 3.487621313082001 -36.45192811568709 0 0 0
1040 50 4 -1.1128 9.346792400359094 2.503148084505568 -31.20810743554801 0 0 0
1376 134 4 -1.1128 5.470641553221133 4.260704743496628 -29.38994355358704 0 1 0
3306 617 3 0.5564 5.0042724494975745 6.652407527425402 -30.133974664097398 1 0 0
1347 127 3 0.5564 8.371203494123646 1.8106464429836275 -28.07522702388871 0 1 0
1208 92 4 -1.1128 1.893247047463413 8.8742338971939 -30.37957137039749 0 0 0
1375 134 3 0.5564 5.881928131308041 5.014561558491801 -29.53663709151871 0 1 0
1373 134 2 0 5.532784613966356 4.1571325467666185 -29.29344381231415 0 1 0
1374 134 3 0.5564 4.712640107887137 4.084708433103259 -29.781651159461 0 1 0
3334 624 3 0.5564 0.622810841162839 5.659466110208138 -30.50607527772349 1 0 0
1201 91 2 0 7.2324134510314355 3.4584414153197653 -25.512539137397944 0 1 0
962 2 5 0.85 1.3939836649658361 7.823507025530295 -32.75529380808174 0 0 0
3388 637 4 -1.1128 0.5482849665362322 4.033308073437087 -31.78685777512363 1 1 0
3540 675 4 -1.1128 6.704972279185054 3.212964216188937 -34.147743750095366 1 0 0
966 6 5 0.85 2.4186524043294404 2.8186771500723817 -26.429669392135093 0 0 0
1170 83 3 0.5564 5.383064419333796 2.5688003675634348 -27.85659795239595 0 1 0
3537 675 2 0 6.6344330466412655 3.0920636666776242 -34.082105089231554 1 0 0
3335 624 3 0.5564 0.3411112651423883 6.550201168919333 -29.314803010753142 1 0 0
1039 50 3 0.5564 8.92369099856426 1.744793027652936 -31.138404118228905 0 0 0
3352 628 4 -1.1128 1.561815402478533 7.056467922033522 -35.43666934771648 1 0 0
3351 628 3 0.5564 2.1633876134680445 6.540091148406438 -35.797836405355596 1 0 0
3333 624 2 0 0.9573844835865228 6.423308118871602 -30.036144920653086 1 0 0
1010 43 3 0.5564 6.652242979827415 0.5580742826021323 -36.091084886980866 0 1 0
1354 129 3 0.5564 3.1564691907802325 19.658049170539538 -27.77900362194521 0 0 0
3385 637 2 0 0.4906828374673818 4.1239427950653305 -31.675644008160607 1 1 0
1387 137 3 0.5564 8.456312303135839 7.6791529085491 -35.89123719018931 0 0 0
3579 685 3 0.5564 2.0478366059673165 1.4854417324477038 -28.958133659205537 1 0 0
3461 656 2 0 1.206820942810578 7.110461712246008 -25.554854856085623 1 0 0
3350 628 3 0.5564 0.7268272579927344 6.810115836579175 -35.40378790218125 1 0 0
3336 624 4 -1.1128 0.8319313833866822 6.339270168265681 -30.002974112580233 1 0 0
3386 637 3 0.5564 1.2642398620121953 3.5619105742965615 -31.63139483308262 1 1 0
1009 43 2 0 6.723760210631618 0.6477537423150008 -37.041385658896615 0 1 0
1731 223 3 0.5564 7.1350983334116815 7.959153348111107 -26.151308274390747 0 0 0
1012 43 4 -1.1128 6.790091062231816 0.5411871646858214 -36.951136322841464 0 1 0
1252 103 4 -1.1128 0.49663002006657647 4.488809134537705 -25.766360586032473 0 0 0
1377 135 2 0 2.8430041183283232 5.079518265654108 -36.872956626376265 0 0 0
1380 135 4 -1.1128 2.9715059821633183 4.996112435162401 -36.852174460201375 0 0 0
3327 622 3 0.5564 3.0918767662137205 4.166874190992517 -34.64153337219065 1 1 0
1386 137 3 0.5564 7.383052234230146 8.532407534686808 -36.533080299887686 0 0 0
3462 656 3 0.5564 0.6729266733173092 7.304647580242463 -26.32522972235056 1 0 0
1294 114 3 0.5564 5.592212541482356 0.469039362941464 -34.03991824486836 0 0 0
1109 68 2 0 4.375706041023007 1.9002323677830513 -33.13481232341135 0 0 0
1110 68 3 0.5564 5.15504785101895 2.3461267497257925 -33.4665248800687 0 0 0
1111 68 3 0.5564 3.655456044765223 2.257459774279535 -33.65429013798909 0 0 0
1112 68 4 -1.1128 4.3835025133415 2.0061948758842876 -33.247116917690846 0 0 0
1167 82 3 0.5564 9.129286257089499 0.9692593292451923 -25.772644163455418 0 1 0
1395 139 3 0.5564 10.60347365215833 13.196914409688617 -34.19740379871478 0 0 0
3577 685 2 0 2.999480131737665 1.557526447027557 -28.884600872754493 1 0 0
1378 135 3 0.5564 3.7334341067707895 5.296611143393534 -37.14906130764253 0 0 0
1206 92 3 0.5564 2.5310519911269953 9.184526090959526 -29.873706418828032 0 0 0
1390 138 3 0.5564 6.84162654417246 2.559701279624318 -37.03194344411754 0 0 0
3277 610 2 0 0.3360746588121241 3.346418854742965 -28.39997850452037 1 0 0
1020 45 4 -1.1128 10.06014005453503 7.545890334228849 -34.74274095766022 0 0 0
3387 637 3 0.5564 0.1537097117435166 3.9990271412214935 -32.562815845441655 1 1 0
3578 685 3 0.5564 3.2434489518911946 2.201591551156768 -29.549347466078483 1 0 0
3490 663 3 0.5564 10.448501015537275 5.848458605935755 -27.3268535526056 0 0 0
1091 63 3 0.5564 0.3869929830377472 12.159557321710283 -26.784171381597712 0 0 0
3492 663 4 -1.1128 9.83466578917196 5.788058594083714 -26.711602470248742 0 0 0
1334 124 3 0.5564 7.8903263120250795 0.3078270002217763 -29.655759090977835 0 0 0
1346 127 3 0.5564 9.50759244919559 0.8165456975618346 -27.964425125247857 0 1 0
1335 124 3 0.5564 6.5898530557056265 19.633462710498716 -30.3138498126093 0 -1 0
1250 103 3 0.5564 0.6227420421967972 5.327287658809167 -25.56629743822703 0 0 0
1153 79 2 0 4.5023495917089384 9.431543658366701 -29.337523797382325 0 0 0
3458 655 3 0.5564 4.5546491751198745 8.642923369953962 -33.55808916805241 1 0 0
3460 655 4 -1.1128 4.589316609571355 9.45919640797262 -33.86053294347588 1 0 0
3457 655 2 0 4.466188597118407 9.519701115176748 -33.93180589034588 1 0 0
1057 55 2 0 10.108865690053412 9.903049107026026 -33.62662580326471 0 0 0
3328 622 4 -1.1128 2.8190630013967692 3.3526739270239623 -34.78859227460705 1 1 0
1146 77 3 0.5564 8.03605087551761 12.235749080603771 -36.85107961071415 0 0 0
1066 57 3 0.5564 10.16962171862659 4.495435170690794 -25.282190513039488 0 0 0
1058 55 3 0.5564 10.063307446417912 10.656607822738811 -34.21510042914944 0 0 0
1156 79 4 -1.1128 4.61568329082434 9.521119330020744 -29.282452646199992 0 0 0
1333 124 2 0 7.518553422028278 0.041180704141940166 -30.49654048227425 0 0 0
1336 124 4 -1.1128 7.445073368228885 0.057531591317386145 -30.361505338025744 0 0 0
1154 79 3 0.5564 5.22400336162248 9.176325123830011 -28.76279950443958 0 0 0
1296 114 4 -1.1128 6.252872490565632 19.66417523041333 -34.216130874912174 0 -1 0
1339 125 3 0.5564 2.2550244234173142 8.612008331037494 -36.52544741452702 0 0 0
1011 43 3 0.5564 7.298018959359843 19.664732988555908 -37.307659509622304 0 0 0
3560 680 4 -1.1128 9.736977009806212 9.843885558057151 -28.008316471728822 0 0 0
3557 680 2 0 9.595559541644915 9.905295141248638 -27.99686558568902 0 0 0
1030 48 3 0.5564 10.295817297397281 0.8807295047536143 -35.9804601669657 0 0 0
1017 45 2 0 9.95062831209189 7.5289888851099915 -34.85054948832802 0 0 0
1219 95 3 0.5564 5.772382151948709 0.48252776397536 -26.35940070262312 0 0 0
3559 680 3 0.5564 10.1342959023068 9.540086776022767 -27.29500045578881 0 0 0
1338 125 3 0.5564 3.1986151835432963 9.473267165609666 -37.337705321399234 0 0 0
1337 125 2 0 2.2756552901381637 9.37419832580044 -37.10412647594334 0 0 0
1340 125 4 -1.1128 2.394707030703972 9.286707260602926 -37.05859454671937 0 0 0
3278 610 3 0.5564 0.20653755660457662 2.4413291721990547 -28.683283080205616 1 0 0
3254 604 3 0.5564 0.5507693658866949 19.257981359355252 -25.486402369378407 1 0 0
3398 640 3 0.5564 1.0589208440370057 0.06268740076433588 -30.398121741516682 1 1 0
1204 91 4 -1.1128 7.299683197763608 3.4400673827179684 -25.374559660298857 0 1 0
3737 725 2 0 0.0814243619281648 1.2340417365637764 -26.141069612191757 1 0 0
1082 61 3 0.5564 4.048333893778694 18.90862075907389 -32.5779098198043 0 -1 0
3491 663 3 0.5564 9.076241170233367 6.207923089356832 -26.79809896669148 0 0 0
3326 622 3 0.5564 2.0029131757763863 3.116152699992638 -34.5964128995342 1 1 0
1249 103 2 0 0.5502432744242092 4.378709457312755 -25.671995126079437 0 0 0
1018 45 3 0.5564 10.539599450532702 6.858931693882177 -34.503612843581955 0 0 0
3499 665 3 0.5564 2.3544123131248442 16.041241721399903 -35.420429993876546 1 0 0
1729 223 2 0 6.857688272031432 7.923224301109335 -25.235895013438892 0 0 0
1202 91 3 0.5564 7.660213678593573 2.6740499710461223 -25.169106896121615 0 1 0
3362 631 3 0.5564 0.37095977908538735 9.374454851347801 -29.37989391899618 1 0 0
1074 59 3 0.5564 0.31477487354348477 18.6343052995313 -32.208413908071215 0 0 0
3253 604 2 0 0.9537670404361819 18.46352491852212 -25.13617313755094 1 0 0
1059 55 3 0.5564 9.503391973904565 10.116128186935626 -32.91653597679359 0 0 0
1060 55 4 -1.1128 10.022969652483722 10.030585636010818 -33.610580102770875 0 0 0
3280 610 4 -1.1128 0.26224904678256644 3.296445485891065 -28.52628607125353 1 0 0
3459 655 3 0.5564 5.310952339116049 9.937895446987453 -33.765323465004286 1 0 0
1181 86 2 0 7.420468944726189 15.637222781510948 -36.656923699149466 0 0 0
1176 84 4 -1.1128 6.784523807780832 11.077452525088965 -33.63776162543941 0 0 0
3447 652 3 0.5564 0.19235771643300822 12.698033692707021 -33.71704692847361 1 0 0
1054 54 3 0.5564 8.49031986919948 10.274734840513752 -36.230885266268324 0 0 0
1183 86 3 0.5564 7.861768223921311 14.789342989200811 -36.60609574548289 0 0 0
3472 658 4 -1.1128 0.1097355699388517 10.31083316117282 -33.72020489814224 1 0 0
3469 658 2 0 0.2595654616739662 10.314101864429942 -33.758171714201275 1 0 0
1356 129 4 -1.1128 3.4590367425102198 18.898484528831865 -27.47818777693766 0 0 0
1353 129 2 0 3.3981122857106696 18.83720414081613 -27.349992283224655 0 0 0
1101 66 2 0 4.9417357043178916 19.26223496619437 -29.820825915375057 0 0 0
1103 66 3 0.5564 4.3389057387833425 0.24792836091854242 -29.637998837636136 0 1 0
1104 66 4 -1.1128 4.828867358831316 19.316501480097205 -29.911473816928023 0 0 0
1053 54 2 0 7.533216013296597 10.279303307891597 -36.21823556186161 0 0 0
1056 54 4 -1.1128 7.629548719682107 10.313495199392342 -36.102252441382625 0 0 0
1098 65 3 0.5564 3.3568759666694508 7.319310366744509 -25.393902465731184 0 0 0
1090 63 3 0.5564 0.658390255461544 11.335324472485272 -28.024686170215457 0 0 0
3402 641 3 0.5564 1.138649106578749 12.822659586484972 -29.16831948797106 1 0 0
1290 113 3 0.5564 1.8187613835418128 15.3930701767817 -25.883949151134814 0 -1 0
3391 638 3 0.5564 3.8602837052939125 18.49323371792821 -37.204369214261305 1 -1 0
1076 59 4 -1.1128 1.1580573596449695 18.84180047644036 -32.27766808551921 0 0 0
3390 638 3 0.5564 4.925037092519604 19.539277453477574 -36.95141479601703 1 -1 0
1280 110 4 -1.1128 4.873432766872611 10.408956175730953 -36.913598723698435 0 0 0
1251 103 3 0.5564 0.07139349160570274 4.264609896082229 -26.49291707883848 0 0 0
1006 42 3 0.5564 1.3071918648828869 14.634107315975491 -37.30864155439589 0 0 0
1113 69 2 0 8.083194942127607 9.70881025658882 -31.83482128659489 0 0 0
1116 69 4 -1.1128 7.951805528592135 9.660078685959178 -31.76952797886145 0 0 0
1140 75 4 -1.1128 5.523712125317756 15.472593033585294 -27.367595679576226 0 0 0
1195 89 3 0.5564 7.423666446239692 14.117999841708563 -33.93532678365692 0 0 0
1185 87 2 0 9.042916481249778 16.8021343768074 -29.560812842452723 0 0 0
1005 42 2 0 2.177487160741088 14.646817112283909 -36.91032856692886 0 0 0
3497 665 2 0 1.8077479827771727 16.561930659320858 -34.83198304065791 1 0 0
3256 604 4 -1.1128 0.8201364731680469 18.528541392830068 -25.093548150041745 1 0 0
1217 95 2 0 5.759874063138299 19.297796942371722 -26.09450932789264 0 -1 0
1038 50 3 0.5564 9.580487476612388 2.948428904430201 -30.496709274429904 0 0 0
1220 95 4 -1.1128 5.644213904607166 19.380287805523178 -26.15549412292452 0 -1 0
1267 107 3 0.5564 2.8949455029325066 13.928568383734007 -32.55943349654085 0 0 0
1122 71 3 0.5564 9.903818609705226 18.147290125919152 -36.677624367629505 0 0 0
1302 116 3 0.5564 10.104976385074027 12.445983109741679 -29.247189235387555 0 0 0
1194 89 3 0.5564 6.324303132362306 13.886660761644782 -34.95010545121732 0 0 0
1193 89 2 0 6.493421270183634 13.904524844848305 -34.00813485353866 0 0 0
1190 88 3 0.5564 2.3609165630134483 18.42846895966936 -34.79281892804867 0 0 0
1265 107 2 0 3.55035264464817 13.24264327707521 -32.68662195334118 0 0 0
1182 86 3 0.5564 8.131681087230554 16.277790767334956 -36.66579053577165 0 0 0
1304 116 4 -1.1128 9.471378378277885 12.415639011452626 -28.65002213784873 0 0 0
1271 108 3 0.5564 5.946126305981955 13.086106350538293 -37.3477208651182 0 0 0
3502 666 3 0.5564 1.9023032671858477 16.149677407474357 -31.75725349233372 1 0 0
1285 112 2 0 7.3321301059435084 11.817901477051118 -30.013026984117385 0 0 0
1289 113 2 0 1.2093020014540274 15.996570225986677 -26.308891063747385 0 -1 0
1278 110 3 0.5564 5.707185367680629 10.288885674501122 -37.135894509264176 0 0 0
1115 69 3 0.5564 7.480827389777231 10.210340470543896 -31.285413011024144 0 0 0
1187 87 3 0.5564 8.257472526969192 17.33245727521183 -29.426410108060644 0 0 0
1301 116 2 0 9.397229527399826 12.545396297523967 -28.610447466342038 0 0 0
1236 99 4 -1.1128 7.712699029916915 14.282257152238959 -30.90710516612826 0 0 0
1188 87 4 -1.1128 8.896201225881349 16.75388434795183 -29.553904256662964 0 0 0
1124 71 4 -1.1128 9.041924889147953 18.238197975403065 -36.5890200885781 0 0 0
1121 71 2 0 8.953956177773216 18.259734919345455 -36.71431504404197 0 0 0
1123 71 3 0.5564 8.670835125145624 18.208944722901524 -35.801357486209014 0 0 0
1173 84 2 0 6.7009671367890435 10.988952221526743 -33.73308811180162 0 0 0
3501 666 2 0 2.2375911401456827 15.430908164053466 -32.293146666257606 1 0 0
3290 613 3 0.5564 1.4470939247975907 16.692483205668427 -28.572836736489233 1 0 0
3366 632 3 0.5564 10.639940586243824 5.5540465095228795 -29.201482299916005 0 0 0
1062 56 3 0.5564 7.794517679278352 13.755551938457854 -25.381275294699755 0 0 0
3503 666 3 0.5564 1.9996932422166094 15.668516524314738 -33.18934727672095 1 0 0
1303 116 3 0.5564 9.251479160701523 11.661339902337602 -28.273654061363032 0 0 0
1277 110 2 0 4.776040663242496 10.474377551398375 -37.01427633668307 0 0 0
1175 84 3 0.5564 7.3352112590879806 10.704691002371465 -33.07494023365143 0 0 0
3292 613 4 -1.1128 1.3002116002999364 16.393033583333516 -29.377654260735348 1 0 0
1155 79 3 0.5564 4.639686088777702 10.365683208539483 -29.49484723580108 0 0 0
1355 129 3 0.5564 4.101520202759075 18.480821643184054 -27.89261323242873 0 0 0
1139 75 3 0.5564 5.05226466500748 15.651298851608752 -26.657118893416715 0 0 0
1061 56 2 0 7.700629245760492 14.672230641936006 -25.64033859495909 0 0 0
1235 99 3 0.5564 7.524122417102665 13.504692967526472 -30.562419018086374 0 0 0
3267 607 3 0.5564 9.751085892046339 14.835638290784905 -32.99580030851439 0 0 0
3214 594 3 0.5564 10.227645722685152 9.607876858118802 -37.48832643326105 0 0 0
1089 63 2 0 1.0671224318086043 11.962574639169445 -27.428260220651502 0 0 0
1064 56 4 -1.1128 7.645819218231515 14.547268455394152 -25.71301233723891 0 0 0
3289 613 2 0 1.4186804785137193 16.37457454102326 -29.475253178002685 1 0 0
1215 94 3 0.5564 10.242131071511142 17.709918135084507 -30.62818990599753 0 0 0
1307 117 3 0.5564 4.2683667648720505 14.974396236490339 -28.911074293235526 0 0 0
3265 607 2 0 8.942898290253693 14.919987468111067 -33.50171205328126 0 0 0