LAMMPS data file via write_data, version 29 Aug 2024, timestep = 10000, units = real

5532 atoms
7 atom types

0 21.363 xlo xhi
0 19.735 ylo yhi
-50 50 zlo zhi

Masses

1 12
2 15.9994
3 1.008
4 1e-100
5 39.0983
6 1e-100
7 24.01565

Atoms # full

1 0 1 0 7.833 3.7 -40 0 0 0
3 0 1 0 3.561 8.634 -40 0 0 0
43 0 1 0 3.561 8.634 -47.15932 0 0 0
41 0 1 0 7.833 3.7 -47.15932 0 0 0
23 0 1 0 3.561 8.634 -43.57966 0 0 0
21 0 1 0 7.833 3.7 -43.57966 0 0 0
104 0 1 0 4.985 6.167 -47.15932 0 0 0
102 0 1 0 9.257 1.233 -47.15932 0 0 0
101 0 1 0 0.712 1.233 -47.15932 0 0 0
84 0 1 0 4.985 6.167 -43.57966 0 0 0
82 0 1 0 9.257 1.233 -43.57966 0 0 0
81 0 1 0 0.712 1.233 -43.57966 0 0 0
68 0 1 0 4.985 6.167 -40 0 0 0
66 0 1 0 9.257 1.233 -40 0 0 0
65 0 1 0 0.712 1.233 -40 0 0 0
164 0 1 0 4.985 8.634 -47.15932 0 0 0
162 0 1 0 9.257 3.7 -47.15932 0 0 0
161 0 1 0 0.712 3.7 -47.15932 0 0 0
144 0 1 0 4.985 8.634 -43.57966 0 0 0
142 0 1 0 9.257 3.7 -43.57966 0 0 0
141 0 1 0 0.712 3.7 -43.57966 0 0 0
128 0 1 0 4.985 8.634 -40 0 0 0
126 0 1 0 9.257 3.7 -40 0 0 0
125 0 1 0 0.712 3.7 -40 0 0 0
226 0 1 0 2.848 9.867 -47.15932 0 0 0
224 0 1 0 7.121 4.934 -47.15932 0 0 0
221 0 1 0 2.848 0 -47.15932 0 0 0
206 0 1 0 2.848 9.867 -43.57966 0 0 0
204 0 1 0 7.121 4.934 -43.57966 0 0 0
201 0 1 0 2.848 0 -43.57966 0 0 0
189 0 1 0 2.848 9.867 -40 0 0 0
187 0 1 0 7.121 4.934 -40 0 0 0
184 0 1 0 2.848 0 -40 0 0 0
284 0 1 0 7.121 7.4 -47.15932 0 0 0
281 0 1 0 2.848 2.467 -47.15932 0 0 0
264 0 1 0 7.121 7.4 -43.57966 0 0 0
261 0 1 0 2.848 2.467 -43.57966 0 0 0
248 0 1 0 7.121 7.4 -40 0 0 0
245 0 1 0 2.848 2.467 -40 0 0 0
347 0 1 0 9.97 9.867 -47.15932 0 0 0
346 0 1 0 1.424 9.867 -47.15932 0 0 0
344 0 1 0 5.697 4.934 -47.15932 0 0 0
342 0 1 0 9.97 0 -47.15932 0 0 0
341 0 1 0 1.424 0 -47.15932 0 0 0
327 0 1 0 9.97 9.867 -43.57966 0 0 0
326 0 1 0 1.424 9.867 -43.57966 0 0 0
324 0 1 0 5.697 4.934 -43.57966 0 0 0
311 0 1 0 9.97 9.867 -40 0 0 0
310 0 1 0 1.424 9.867 -40 0 0 0
308 0 1 0 5.697 4.934 -40 0 0 0
306 0 1 0 9.97 0 -40 0 0 0
305 0 1 0 1.424 0 -40 0 0 0
303 0 1 0 9.97 0 -43.57966 0 0 0
302 0 1 0 1.424 0 -43.57966 0 0 0
361 0 1 0 5.697 7.4 -43.57966 0 0 0
404 0 1 0 5.697 7.4 -47.15932 0 0 0
402 0 1 0 9.97 2.467 -47.15932 0 0 0
401 0 1 0 1.424 2.467 -47.15932 0 0 0
385 0 1 0 9.97 2.467 -43.57966 0 0 0
384 0 1 0 1.424 2.467 -43.57966 0 0 0
367 0 1 0 5.697 7.4 -40 0 0 0
365 0 1 0 9.97 2.467 -40 0 0 0
364 0 1 0 1.424 2.467 -40 0 0 0
425 0 1 0 3.561 1.233 -40 0 0 0
464 0 1 0 7.833 6.167 -47.15932 0 0 0
461 0 1 0 3.561 1.233 -47.15932 0 0 0
428 0 1 0 7.833 6.167 -40 0 0 0
448 0 1 0 7.833 6.167 -43.57966 0 0 0
445 0 1 0 3.561 1.233 -43.57966 0 0 0
485 0 1 0 3.561 3.7 -40 0 0 0
524 0 1 0 7.833 8.634 -47.15932 0 0 0
488 0 1 0 7.833 8.634 -40 0 0 0
521 0 1 0 3.561 3.7 -47.15932 0 0 0
508 0 1 0 7.833 8.634 -43.57966 0 0 0
505 0 1 0 3.561 3.7 -43.57966 0 0 0
584 0 1 0 9.257 6.167 -47.15932 0 0 0
583 0 1 0 0.712 6.167 -47.15932 0 0 0
581 0 1 0 4.985 1.233 -47.15932 0 0 0
567 0 1 0 9.257 6.167 -43.57966 0 0 0
566 0 1 0 0.712 6.167 -43.57966 0 0 0
564 0 1 0 4.985 1.233 -43.57966 0 0 0
547 0 1 0 9.257 6.167 -40 0 0 0
546 0 1 0 0.712 6.167 -40 0 0 0
544 0 1 0 4.985 1.233 -40 0 0 0
644 0 1 0 9.257 8.634 -47.15932 0 0 0
643 0 1 0 0.712 8.634 -47.15932 0 0 0
628 0 1 0 9.257 8.634 -43.57966 0 0 0
627 0 1 0 0.712 8.634 -43.57966 0 0 0
625 0 1 0 4.985 3.7 -43.57966 0 0 0
608 0 1 0 9.257 8.634 -40 0 0 0
607 0 1 0 0.712 8.634 -40 0 0 0
605 0 1 0 4.985 3.7 -40 0 0 0
604 0 1 0 4.985 3.7 -47.15932 0 0 0
706 0 1 0 7.121 9.867 -47.15932 0 0 0
705 0 1 0 7.121 0 -47.15932 0 0 0
690 0 1 0 7.121 9.867 -43.57966 0 0 0
687 0 1 0 2.848 4.934 -43.57966 0 0 0
685 0 1 0 7.121 0 -43.57966 0 0 0
670 0 1 0 7.121 9.867 -40 0 0 0
667 0 1 0 2.848 4.934 -40 0 0 0
665 0 1 0 7.121 0 -40 0 0 0
662 0 1 0 2.848 4.934 -47.15932 0 0 0
767 0 1 0 2.848 7.4 -47.15932 0 0 0
765 0 1 0 7.121 2.467 -47.15932 0 0 0
747 0 1 0 2.848 7.4 -43.57966 0 0 0
745 0 1 0 7.121 2.467 -43.57966 0 0 0
727 0 1 0 2.848 7.4 -40 0 0 0
725 0 1 0 7.121 2.467 -40 0 0 0
830 0 1 0 5.697 9.867 -47.15932 0 0 0
828 0 1 0 9.97 4.934 -47.15932 0 0 0
827 0 1 0 1.424 4.934 -47.15932 0 0 0
825 0 1 0 5.697 0 -47.15932 0 0 0
810 0 1 0 5.697 9.867 -43.57966 0 0 0
808 0 1 0 9.97 4.934 -43.57966 0 0 0
807 0 1 0 1.424 4.934 -43.57966 0 0 0
805 0 1 0 5.697 0 -43.57966 0 0 0
790 0 1 0 5.697 9.867 -40 0 0 0
788 0 1 0 9.97 4.934 -40 0 0 0
787 0 1 0 1.424 4.934 -40 0 0 0
785 0 1 0 5.697 0 -40 0 0 0
888 0 1 0 9.97 7.4 -47.15932 0 0 0
887 0 1 0 1.424 7.4 -47.15932 0 0 0
885 0 1 0 5.697 2.467 -47.15932 0 0 0
868 0 1 0 9.97 7.4 -43.57966 0 0 0
867 0 1 0 1.424 7.4 -43.57966 0 0 0
865 0 1 0 5.697 2.467 -43.57966 0 0 0
848 0 1 0 9.97 7.4 -40 0 0 0
847 0 1 0 1.424 7.4 -40 0 0 0
845 0 1 0 5.697 2.467 -40 0 0 0
905 0 1 0 7.833 1.233 -40 0 0 0
907 0 1 0 3.561 6.167 -40 0 0 0
947 0 1 0 3.561 6.167 -47.15932 0 0 0
945 0 1 0 7.833 1.233 -47.15932 0 0 0
927 0 1 0 3.561 6.167 -43.57966 0 0 0
925 0 1 0 7.833 1.233 -43.57966 0 0 0
781 0 1 0 9.97 14.801 -47.15932 0 0 0
832 0 1 0 1.424 14.801 -47.15932 0 0 0
813 0 1 0 9.97 14.801 -43.57966 0 0 0
912 0 1 0 3.561 16.034 -40 0 0 0
853 0 1 0 9.97 17.268 -40 0 0 0
873 0 1 0 9.97 17.268 -43.57966 0 0 0
793 0 1 0 9.97 14.801 -40 0 0 0
910 0 1 0 7.833 11.101 -40 0 0 0
893 0 1 0 9.97 17.268 -47.15932 0 0 0
950 0 1 0 7.833 11.101 -47.15932 0 0 0
812 0 1 0 1.424 14.801 -43.57966 0 0 0
930 0 1 0 7.833 11.101 -43.57966 0 0 0
850 0 1 0 5.697 12.334 -40 0 0 0
952 0 1 0 3.561 16.034 -47.15932 0 0 0
852 0 1 0 1.424 17.268 -40 0 0 0
870 0 1 0 5.697 12.334 -43.57966 0 0 0
792 0 1 0 1.424 14.801 -40 0 0 0
892 0 1 0 1.424 17.268 -47.15932 0 0 0
872 0 1 0 1.424 17.268 -43.57966 0 0 0
890 0 1 0 5.697 12.334 -47.15932 0 0 0
932 0 1 0 3.561 16.034 -43.57966 0 0 0
48 0 1 0 3.561 18.501 -47.15932 0 0 0
46 0 1 0 7.833 13.568 -47.15932 0 0 0
6 0 1 0 7.833 13.568 -40 0 0 0
8 0 1 0 3.561 18.501 -40 0 0 0
28 0 1 0 3.561 18.501 -43.57966 0 0 0
26 0 1 0 7.833 13.568 -43.57966 0 0 0
109 0 1 0 4.985 16.034 -47.15932 0 0 0
107 0 1 0 9.257 11.101 -47.15932 0 0 0
106 0 1 0 0.712 11.101 -47.15932 0 0 0
89 0 1 0 4.985 16.034 -43.57966 0 0 0
87 0 1 0 9.257 11.101 -43.57966 0 0 0
86 0 1 0 0.712 11.101 -43.57966 0 0 0
69 0 1 0 4.985 16.034 -40 0 0 0
63 0 1 0 9.257 11.101 -40 0 0 0
62 0 1 0 0.712 11.101 -40 0 0 0
121 0 1 0 4.985 18.501 -40 0 0 0
169 0 1 0 4.985 18.501 -47.15932 0 0 0
167 0 1 0 9.257 13.568 -47.15932 0 0 0
166 0 1 0 0.712 13.568 -47.15932 0 0 0
149 0 1 0 4.985 18.501 -43.57966 0 0 0
147 0 1 0 9.257 13.568 -43.57966 0 0 0
146 0 1 0 0.712 13.568 -43.57966 0 0 0
131 0 1 0 9.257 13.568 -40 0 0 0
130 0 1 0 0.712 13.568 -40 0 0 0
229 0 1 0 7.121 14.801 -47.15932 0 0 0
209 0 1 0 7.121 14.801 -43.57966 0 0 0
192 0 1 0 7.121 14.801 -40 0 0 0
289 0 1 0 7.121 17.268 -47.15932 0 0 0
286 0 1 0 2.848 12.334 -47.15932 0 0 0
269 0 1 0 7.121 17.268 -43.57966 0 0 0
266 0 1 0 2.848 12.334 -43.57966 0 0 0
253 0 1 0 7.121 17.268 -40 0 0 0
250 0 1 0 2.848 12.334 -40 0 0 0
349 0 1 0 5.697 14.801 -47.15932 0 0 0
329 0 1 0 5.697 14.801 -43.57966 0 0 0
313 0 1 0 5.697 14.801 -40 0 0 0
409 0 1 0 5.697 17.268 -47.15932 0 0 0
407 0 1 0 9.97 12.334 -47.15932 0 0 0
406 0 1 0 1.424 12.334 -47.15932 0 0 0
389 0 1 0 5.697 17.268 -43.57966 0 0 0
387 0 1 0 9.97 12.334 -43.57966 0 0 0
372 0 1 0 5.697 17.268 -40 0 0 0
370 0 1 0 9.97 12.334 -40 0 0 0
369 0 1 0 1.424 12.334 -40 0 0 0
363 0 1 0 1.424 12.334 -43.57966 0 0 0
423 0 1 0 7.833 16.034 -43.57966 0 0 0
469 0 1 0 7.833 16.034 -47.15932 0 0 0
466 0 1 0 3.561 11.101 -47.15932 0 0 0
450 0 1 0 3.561 11.101 -43.57966 0 0 0
430 0 1 0 3.561 11.101 -40 0 0 0
433 0 1 0 7.833 16.034 -40 0 0 0
529 0 1 0 7.833 18.501 -47.15932 0 0 0
526 0 1 0 3.561 13.568 -47.15932 0 0 0
490 0 1 0 3.561 13.568 -40 0 0 0
493 0 1 0 7.833 18.501 -40 0 0 0
513 0 1 0 7.833 18.501 -43.57966 0 0 0
510 0 1 0 3.561 13.568 -43.57966 0 0 0
589 0 1 0 9.257 16.034 -47.15932 0 0 0
588 0 1 0 0.712 16.034 -47.15932 0 0 0
586 0 1 0 4.985 11.101 -47.15932 0 0 0
572 0 1 0 9.257 16.034 -43.57966 0 0 0
571 0 1 0 0.712 16.034 -43.57966 0 0 0
569 0 1 0 4.985 11.101 -43.57966 0 0 0
552 0 1 0 9.257 16.034 -40 0 0 0
551 0 1 0 0.712 16.034 -40 0 0 0
549 0 1 0 4.985 11.101 -40 0 0 0
649 0 1 0 9.257 18.501 -47.15932 0 0 0
648 0 1 0 0.712 18.501 -47.15932 0 0 0
646 0 1 0 4.985 13.568 -47.15932 0 0 0
633 0 1 0 9.257 18.501 -43.57966 0 0 0
632 0 1 0 0.712 18.501 -43.57966 0 0 0
630 0 1 0 4.985 13.568 -43.57966 0 0 0
613 0 1 0 9.257 18.501 -40 0 0 0
612 0 1 0 0.712 18.501 -40 0 0 0
610 0 1 0 4.985 13.568 -40 0 0 0
708 0 1 0 2.848 14.801 -47.15932 0 0 0
692 0 1 0 2.848 14.801 -43.57966 0 0 0
672 0 1 0 2.848 14.801 -40 0 0 0
721 0 1 0 7.121 12.334 -47.15932 0 0 0
752 0 1 0 2.848 17.268 -43.57966 0 0 0
750 0 1 0 7.121 12.334 -43.57966 0 0 0
732 0 1 0 2.848 17.268 -40 0 0 0
730 0 1 0 7.121 12.334 -40 0 0 0
723 0 1 0 2.848 17.268 -47.15932 0 0 0
961 1 5 0.85 3.919550065294284 9.794868740662768 -34.24056616582585 0 0 0
963 3 5 0.85 3.1277513976077884 1.6427616009081016 -30.590972651641547 0 0 0
1143 71 3 0.5564 2.741380255681941 9.038936383146494 -36.64074307926772 0 0 0
1149 73 2 0 7.402399180489759 2.9530407935146616 -36.51225000908981 0 0 0
1150 73 3 0.5564 7.482526219923019 2.000639898498532 -36.45989669377859 0 0 0
1152 73 4 -1.1128 7.293616995505575 2.851024716554451 -36.471503030407774 0 0 0
1151 73 3 0.5564 6.497779171605866 3.1322310912546234 -36.25576969089228 0 0 0
3488 657 4 -1.1128 9.41085800465077 3.9356293774327833 -30.65681503027594 0 0 0
1030 46 7 -0.65 5.659793253110096 1.3315105163043803 -25.80382738403582 0 0 0
1122 66 3 0.5564 8.986552188149938 8.277599693864367 -32.15899390563897 0 0 0
1137 70 2 0 5.286185868269938 6.974175931051137 -36.5773658319285 0 0 0
1209 88 2 0 4.987723139396452 5.916256044643098 -34.14936791407087 0 0 0
1210 88 3 0.5564 4.998519981562465 6.23196812203052 -35.05293749594653 0 0 0
1211 88 3 0.5564 5.406200169106136 6.614698095985714 -33.646094277346606 0 0 0
1212 88 4 -1.1128 5.044360796076988 6.050061796931674 -34.20218227291603 0 0 0
1394 134 3 0.5564 7.838811684227831 9.95038732865458 -25.360396648901208 0 0 0
3345 622 2 0 10.632696833839317 15.460649586017682 -30.702547913081613 0 0 0
1231 93 3 0.5564 5.277894579017639 2.596580632301329 -32.77357035862057 0 1 0
1233 94 2 0 3.839816684054012 8.007671027093982 -32.0503416292782 0 0 0
1234 94 3 0.5564 2.9785595927373953 7.590395127446335 -32.068935260717375 0 0 0
1235 94 3 0.5564 3.777711696979855 8.65507928531251 -31.34803528965782 0 0 0
1236 94 4 -1.1128 3.7179898788044614 8.038034294857908 -31.960133749947268 0 0 0
1237 95 2 0 8.027107288218213 3.8002071541939344 -28.63218228228152 0 0 0
1238 95 3 0.5564 7.969783628385864 2.9642197985001624 -28.169507649257955 0 0 0
1239 95 3 0.5564 7.157630574579574 4.188489020682658 -28.534836951134526 0 0 0
1240 95 4 -1.1128 7.904826840226632 3.741137661609189 -28.558294210952266 0 0 0
1392 133 4 -1.1128 10.28454359146995 8.904337928851726 -29.84272181493334 0 0 0
1403 136 3 0.5564 10.34178914829356 1.065259801701577 -29.359427475300944 0 1 0
3435 644 3 0.5564 2.4055395026569473 4.305754392700823 -33.05920875343858 1 0 0
1488 157 4 -1.1128 4.574642093427108 2.968230915505867 -36.06602615788709 0 0 0
1131 68 3 0.5564 8.757794075863695 1.5062470064392655 -33.657530427123206 0 0 0
1130 68 3 0.5564 8.39182056339854 2.4886534703268235 -34.749699891028 0 0 0
1321 116 2 0 8.353472162867083 6.929179836024549 -35.95301709051305 0 0 0
1322 116 3 0.5564 8.785821698772136 6.075835845458279 -35.91975165098344 0 0 0
1323 116 3 0.5564 8.065302706058727 7.087419228274173 -35.05404693761407 0 0 0
1324 116 4 -1.1128 8.372495034639758 6.83746893029321 -35.83001952907601 0 0 0
1485 157 2 0 4.630741699775761 2.8251026356243756 -36.08240570811563 0 0 0
1464 151 4 -1.1128 5.668073897780896 6.41832941255779 -29.093461229058125 0 0 0
1028 46 7 -0.65 3.777222691931954 2.7768053656145253 -25.267807266076566 0 0 0
1486 157 3 0.5564 4.497401614933418 3.3126542882744037 -35.269545028372555 0 0 0
1411 138 3 0.5564 2.4106794201266535 6.8234541921584855 -28.688894493803453 0 0 0
1409 138 2 0 2.9087827885720863 6.077369911293419 -29.02278063770489 0 0 0
3300 610 4 -1.1128 1.111842787340359 3.4073464343056012 -36.621976823880864 1 0 0
1138 70 3 0.5564 4.993979156716729 7.8725369754527055 -36.73161027599379 0 0 0
1140 70 4 -1.1128 5.3735134434783705 7.100936917802929 -36.591743135080684 0 0 0
1259 100 3 0.5564 3.7741218097418634 5.833191709131414 -36.632107300872015 0 0 0
1437 145 2 0 8.648422511254555 1.3250997557493254 -31.138292038702755 0 0 0
1439 145 3 0.5564 8.933431330604044 2.2386359033278733 -31.117070425655516 0 0 0
1440 145 4 -1.1128 8.568570973893417 1.448020416700608 -31.0891452881249 0 0 0
1441 146 2 0 6.5878227156708435 3.79643631892476 -33.633365720305186 0 0 0
1442 146 3 0.5564 5.971714775202139 4.492674920135978 -33.86116276325106 0 0 0
1443 146 3 0.5564 7.451402590016648 4.192116788015171 -33.75124465780169 0 0 0
1444 146 4 -1.1128 6.620473737191804 3.9405022439167667 -33.6789736149051 0 0 0
1453 149 2 0 4.972227914412757 3.228585444518479 -28.243664023596402 0 0 0
1455 149 3 0.5564 4.589013542063971 2.597893451254052 -27.634071511046 0 0 0
1456 149 4 -1.1128 4.899550319823175 3.25793066392045 -28.11040493256347 0 0 0
1469 153 2 0 3.6254403638339143 5.069298095461722 -31.66632339453255 0 0 0
1470 153 3 0.5564 3.4872256117074762 5.498033988568129 -30.821746048662494 0 0 0
1471 153 3 0.5564 4.288154839374124 5.605277277489687 -32.101943087891485 0 0 0
1472 153 4 -1.1128 3.694641955661395 5.19658094401072 -31.612366224908893 0 0 0
3327 617 3 0.5564 1.1011822295415539 7.195966734264173 -35.383718730121856 1 0 0
1183 81 3 0.5564 6.887404092088895 8.003337949232732 -31.425254746910497 0 0 0
1184 81 4 -1.1128 7.211534108047141 8.811729815590223 -31.44570136183863 0 0 0
1487 157 3 0.5564 4.33888595838847 3.4223633583555535 -36.77112083950293 0 0 0
1229 93 2 0 4.616055164254597 1.912517355789366 -32.67230486749028 0 1 0
1230 93 3 0.5564 5.110381625552085 1.093515092673127 -32.70555121423106 0 1 0
1232 93 4 -1.1128 4.768597702350249 1.8947137378735617 -32.69005212813655 0 1 0
3473 654 2 0 0.8841633459723467 1.575627382689543 -32.64216020996271 1 0 0
3474 654 3 0.5564 0.6476410638605195 2.5027718269250054 -32.61591013400154 1 0 0
1462 151 3 0.5564 5.941326567193842 6.9296469991709895 -28.44318202350199 0 0 0
1257 100 2 0 3.014227441500965 5.262609551557935 -36.5171063118562 0 0 0
1260 100 4 -1.1128 3.046328027682062 5.393775048371739 -36.441831317253616 0 0 0
3571 678 3 0.5564 7.219402058927572 5.374608691969934 -31.979952010656806 0 0 0
3476 654 4 -1.1128 0.7720033141532734 1.6469447282992031 -32.72112300802318 1 0 0
1103 61 3 0.5564 9.738757668483144 4.784806127096694 -37.31221713077079 0 0 0
1461 151 2 0 5.766538460557867 6.318905184088853 -29.15919335720331 0 0 0
1412 138 4 -1.1128 2.8951219078863795 6.12396797464306 -28.87600475129655 0 0 0
3297 610 2 0 1.140370613478737 3.286956642666948 -36.7146786102985 1 0 0
1788 232 4 -1.1128 6.40938577927207 8.232297679627894 -27.0268172414923 0 0 0
3299 610 3 0.5564 0.35793029286063427 3.4478151072148595 -36.18728845495395 1 0 0
1438 145 3 0.5564 7.758194821152889 1.3432163486382778 -30.787015615158097 0 0 0
1132 68 4 -1.1128 8.980169808957951 2.1446645087417453 -34.20702825877018 0 0 0
1129 68 2 0 9.125479215491824 2.197436086828964 -34.20825174516598 0 0 0
1463 151 3 0.5564 4.845457753148644 6.461729565324705 -29.3770010785152 0 0 0
3521 666 2 0 1.0021268245262127 0.27659620448461614 -29.189528044195075 1 1 0
1306 112 3 0.5564 0.8499296407723848 7.62267650084566 -25.60647078840411 0 0 0
1102 61 3 0.5564 9.962809696356322 3.908555646150041 -36.09818294943708 0 0 0
3328 617 4 -1.1128 0.897666566186859 6.487182880040726 -34.91984098366119 1 0 0
1139 70 3 0.5564 6.240274594869929 7.036574613921722 -36.53209130210378 0 0 0
1734 219 3 0.5564 7.528284688137225 6.677694562099027 -26.858282591488415 0 0 0
3325 617 2 0 1.0026975900888333 6.425092207364987 -34.82489682962959 1 0 0
1410 138 3 0.5564 3.3033462245965217 5.684466398284595 -28.24420809688553 0 0 0
3619 690 3 0.5564 1.1248303978847094 9.94341769291732 -35.31227548476829 1 0 0
1787 232 3 0.5564 6.996464484247784 8.864881967677903 -27.145777123706257 0 0 0
1733 219 2 0 8.331212782852624 6.163121838628421 -26.94044136385449 0 0 0
1736 219 4 -1.1128 8.186620338983802 6.110911583715663 -26.924062277860898 0 0 0
1454 149 3 0.5564 4.8045968906665255 4.081693700955308 -27.843245717849587 0 0 0
1107 62 3 0.5564 7.244533793250553 8.807403342564312 -33.64692844293437 0 0 0
3570 678 3 0.5564 6.645317087312822 6.064724974624465 -30.76091174397927 0 0 0
1362 126 3 0.5564 9.27211349171153 6.220885852292522 -33.2122513501084 0 0 0
1175 79 3 0.5564 5.952520197702168 19.36932211798459 -27.16276475720501 0 -1 0
1480 155 4 -1.1128 1.7471133642637817 8.607820894960739 -28.647824174121087 0 0 0
1477 155 2 0 1.7893449470786138 8.53653453616998 -28.51730249598558 0 0 0
1206 87 3 0.5564 4.343177349178232 5.916246856239578 -25.953870314251105 0 0 0
1479 155 3 0.5564 0.9022357233523476 8.671311598004928 -28.850620730834706 0 0 0
3524 666 4 -1.1128 0.8539748302472125 0.3129231088101604 -29.214677648829685 1 1 0
3298 610 3 0.5564 1.7065899408503649 4.0385686972037975 -36.53945398393068 1 0 0
3482 656 3 0.5564 0.32161907575409165 16.27125927941752 -31.10870948691009 1 -1 0
1785 232 2 0 6.451314744184877 8.084589769372593 -27.044858725615125 0 0 0
3569 678 2 0 6.851791683438125 6.207587897325135 -31.684593022003426 0 0 0
1250 98 3 0.5564 9.945138377480122 5.692023112414862 -27.46846830173006 0 0 0
3572 678 4 -1.1128 6.873051661155146 6.078836964542451 -31.60169325930738 0 0 0
1478 155 3 0.5564 2.356368275079735 8.942058274960257 -29.17324740196481 0 0 0
1805 237 2 0 8.205082293702686 17.98079351408084 -25.319903734043553 0 -1 0
962 2 5 0.85 2.4931581097111644 1.5377734593733212 -34.90106822998241 0 0 0
1711 213 3 0.5564 2.6772840829757594 0.305154998418976 -28.151925413631865 0 1 0
3550 673 3 0.5564 0.05937249362466346 4.107090822464103 -30.65063002713435 1 0 0
1101 61 2 0 10.080198929626425 4.803013502829487 -36.41817292964996 0 0 0
1174 79 3 0.5564 7.334245400915571 0.03214947477798025 -27.636539035729744 0 0 0
1104 61 4 -1.1128 10.019661622979747 4.682598021049148 -36.49391265668653 0 0 0
1786 232 3 0.5564 5.58837274069227 8.423820345457656 -26.807198481238352 0 0 0
3436 644 4 -1.1128 1.7603647197055254 4.263883568557347 -33.64313689493296 1 0 0
1735 219 3 0.5564 8.038231161994089 5.252831855800941 -26.89845810644146 0 0 0
3433 644 2 0 1.7140593163548177 4.126292421923202 -33.69629370059722 1 0 0
3434 644 3 0.5564 1.3735417395625542 4.989675224625703 -33.93048719494117 1 0 0
1105 62 2 0 6.702511088708155 8.469120989776851 -34.35967321804896 0 0 0
1108 62 4 -1.1128 6.808068760473047 8.58187624539937 -34.36638069604565 0 0 0
1106 62 3 0.5564 6.960541795984851 8.985444706382935 -35.12325599068883 0 0 0
1346 122 3 0.5564 9.589093617853301 19.6744960770141 -31.782093198096117 0 -1 0
3364 626 4 -1.1128 10.664972414240644 10.633822084180164 -36.68499360881596 0 0 0
3670 703 3 0.5564 9.485310547406712 1.006177620402327 -27.071914415328095 0 0 0
3671 703 3 0.5564 8.14491091457759 1.5362715561750406 -26.609072699869554 0 0 0
3323 616 3 0.5564 9.936179292635266 7.741033333896678 -36.4562167352741 0 0 0
3669 703 2 0 8.618300170490137 1.2551882089711868 -27.39209469267133 0 0 0
3672 703 4 -1.1128 8.67023386451214 1.2594198336084585 -27.2465400816892 0 0 0
3485 657 2 0 9.459957420527093 3.830752123925175 -30.759241438283368 0 0 0
3487 657 3 0.5564 8.93626585335914 3.6805845478399086 -29.972205531561293 0 0 0
1363 126 3 0.5564 9.863664031695585 4.830825829356039 -33.31071099300058 0 0 0
1808 237 4 -1.1128 8.136960806574619 17.900755025615826 -25.206526208247237 0 -1 0
1121 66 2 0 9.528830107532967 7.969409031498095 -32.88506680189651 0 0 0
1124 66 4 -1.1128 9.476443314100562 8.112735220223836 -32.86027996064507 0 0 0
3646 697 3 0.5564 1.0716226535040936 9.064596147029434 -32.15787903551695 1 0 0
1364 126 4 -1.1128 9.170983009476531 5.357155471869478 -33.264387675230154 0 0 0
1258 100 3 0.5564 2.497633091782437 5.686170230637387 -35.83157344913065 0 0 0
1305 112 2 0 0.2670483218622344 7.77170999617077 -26.350961931559482 0 0 0
1218 90 3 0.5564 0.9057471952039893 3.652652422676682 -28.458721462092566 0 0 0
1302 111 3 0.5564 5.6175585317609436 2.0481037995751894 -29.28661296516744 0 1 0
1361 126 2 0 9.028705071027499 5.296681818928437 -33.265429563257086 0 0 0
1205 87 2 0 4.139240064018478 5.280276545633043 -26.63956705819023 0 0 0
1307 112 3 0.5564 0.8508381020906796 8.02570558469411 -27.065737707877865 0 0 0
1181 81 2 0 7.350107174680242 8.840224550308866 -31.38335783533255 0 0 0
1308 112 4 -1.1128 0.42097690103102925 7.785558514304556 -26.34704133714339 0 0 0
1710 213 3 0.5564 3.9237197204068464 0.5563467402401959 -27.330223447842194 0 1 0
1712 213 4 -1.1128 3.544769050656883 0.35384796062689067 -28.088093077165855 0 1 0
1182 81 3 0.5564 6.762523216146091 9.461140967983193 -31.813981302918656 0 0 0
1219 90 3 0.5564 1.985055361302957 4.426259972767987 -29.185714206921315 0 0 0
1207 87 3 0.5564 4.130841793787593 4.435851660663513 -26.18889560402285 0 0 0
1208 87 4 -1.1128 4.165039145492501 5.252773407450722 -26.489636591689184 0 0 0
3617 690 2 0 1.1916216792715333 9.070012900172587 -35.69819214629155 1 0 0
1123 66 3 0.5564 9.674052728905956 8.747530755297868 -33.42327275698469 0 0 0
3526 667 3 0.5564 10.539565357237446 3.6616426305587244 -32.260665850629664 0 0 0
3620 690 4 -1.1128 1.067989241495528 9.162775087593058 -35.69482214413536 1 0 0
3362 626 3 0.5564 10.133077077345375 11.304570689618764 -36.84673228629047 0 0 0
3648 697 4 -1.1128 0.7380086274336304 8.261469758825184 -32.10625126121822 1 0 0
1304 111 4 -1.1128 5.9083140548201944 1.3442767244669973 -29.709772999971285 0 1 0
1301 111 2 0 5.937609187705391 1.3527682268242667 -29.86133437228282 0 1 0
1348 122 4 -1.1128 10.156048019512665 19.123222186745284 -32.14765515624682 0 -1 0
3618 690 3 0.5564 0.321365449090377 8.899680686546938 -36.0585665456768 1 0 0
1450 148 3 0.5564 2.7039048512340407 18.533078693597258 -36.90368750336091 0 0 0
3422 641 3 0.5564 0.4598791028084587 12.621179677796261 -28.41379323899031 1 0 0
1027 46 7 -0.65 3.4875332110664576 0.3610949846949747 -25.294075775837605 0 0 0
1220 90 4 -1.1128 1.4207933904344927 3.7633217804048864 -29.152591371325233 0 0 0
1217 90 2 0 1.411972254613649 3.664336478704651 -29.27101965177438 0 0 0
1114 64 3 0.5564 0.7620110393991559 17.31100789258541 -36.53888805834864 0 -1 0
3645 697 2 0 0.7080059727051593 8.199819715695265 -31.967686211904464 1 0 0
3486 657 3 0.5564 9.611509715073797 4.7758160167638355 -30.769956725039183 0 0 0
1418 140 3 0.5564 0.4714281939106711 0.15008433371246066 -36.45399264001256 0 1 0
3310 613 3 0.5564 1.2532445935705834 14.770331159901872 -36.87620632464357 1 0 0
1144 71 4 -1.1128 3.494945643465935 9.417789851049717 -36.858882935991915 0 0 0
1141 71 2 0 3.6276294882577553 9.340707805522253 -36.84005435164357 0 0 0
1389 133 2 0 10.147448196890574 8.836973602732844 -29.86655583162533 0 0 0
1297 110 2 0 3.74611354983822 12.77591332445977 -33.93427098364753 0 0 0
1266 102 3 0.5564 6.496923239115396 3.419427064516789 -25.97310013667223 0 0 0
1290 108 3 0.5564 5.358322697434711 15.184968175706805 -32.74814693043149 0 0 0
1490 158 3 0.5564 6.126446900118047 11.552531498204205 -32.87583670441659 0 0 0
1433 144 2 0 5.971672941470384 19.314809171744514 -32.918382387057065 0 0 0
1365 127 2 0 7.652834691704173 10.585908110668779 -27.127247023908673 0 0 0
1368 127 4 -1.1128 7.602065297751966 10.69554301293016 -27.223703318902125 0 0 0
1495 159 3 0.5564 8.453133837890219 0.11183848503494628 -36.188767836538304 0 0 0
1435 144 3 0.5564 6.230460495096329 19.244507456999695 -31.99951604863113 0 0 0
1436 144 4 -1.1128 6.03178799953643 19.192061991983294 -32.84612956943461 0 0 0
1176 79 4 -1.1128 6.616061243937314 19.28118651486897 -27.720367784747552 0 -1 0
1481 156 2 0 7.415587608353134 9.569339989792553 -36.84720772245819 0 0 0
1484 156 4 -1.1128 7.499154630124923 9.618654339118414 -36.967564724010906 0 0 0
1316 114 4 -1.1128 7.653496244494531 13.716887398129394 -30.833822828807804 0 0 0
1285 107 2 0 4.6149342502910455 12.46262544472171 -26.677899228443042 0 0 0
1434 144 3 0.5564 6.168515532989776 18.45477301225256 -33.28962284205936 0 0 0
1283 106 3 0.5564 8.71254539917336 16.568085477356686 -36.65277977162678 0 0 0
3647 697 3 0.5564 0.5717884555843169 7.802307543985386 -32.82771966373754 1 0 0
1367 127 3 0.5564 6.885580470721808 11.148626005277034 -27.02285253951206 0 0 0
1709 213 2 0 3.6323309622458217 0.32628074284392616 -28.21248809371635 0 1 0
3311 613 3 0.5564 0.9967241612293339 13.373839254418542 -36.35094368965906 1 0 0
1315 114 3 0.5564 8.015824515656234 14.187746794529154 -31.47099265988821 0 0 0
1314 114 3 0.5564 7.655570752141037 14.00568905912255 -30.011895193352206 0 0 0
3302 611 3 0.5564 2.9596351090730444 12.760316260262755 -36.736579926280285 1 0 0
1425 142 2 0 2.5709268379600045 15.810692186586893 -25.374947051141014 0 0 0
3338 620 3 0.5564 1.2620776686602189 17.357521483482316 -25.3618484247936 1 0 0
1289 108 2 0 5.214521969163291 14.374581001955455 -32.25945208078815 0 0 0
1493 159 2 0 7.536584125701698 0.15366195068018607 -35.91597469199729 0 0 0
1496 159 4 -1.1128 7.634862037002806 0.035436706563424056 -35.899683473386524 0 0 0
1366 127 3 0.5564 8.035292372858365 10.854146186783668 -27.96271284220908 0 0 0
1173 79 2 0 6.606267345633559 19.17828858563088 -27.835334109010475 0 -1 0
1313 114 2 0 7.58818291022938 13.58073037777957 -30.86693769218705 0 0 0
3480 655 4 -1.1128 0.5533482026250763 16.733991728683375 -28.290113697099006 1 0 0
1339 120 3 0.5564 2.3491423652865917 15.30058437340102 -33.66448342604133 0 0 0
1428 142 4 -1.1128 2.591258478277541 15.6580540695744 -25.38870894188615 0 0 0
1299 110 3 0.5564 2.9384317035925447 12.726712198222332 -33.42294138219446 0 0 0
3337 620 2 0 0.6297947888385339 17.948178836651046 -25.771202706476437 1 0 0
1345 122 2 0 10.306573620215659 19.13505563528839 -32.11444110758391 0 -1 0
3584 681 4 -1.1128 3.1193665119031397 18.758987336583747 -31.25029581379572 1 0 0
1355 124 3 0.5564 4.677243911702999 17.787556126084453 -30.531827156475007 0 0 0
3581 681 2 0 3.272886727071645 18.752839137739272 -31.23312306836623 1 0 0
3582 681 3 0.5564 2.77525569007943 18.776378252391417 -32.050458946695 1 0 0
3657 700 2 0 6.422840388638104 14.285653218778535 -26.03404608118377 0 0 0
1254 99 3 0.5564 6.463452441391825 13.573265681285731 -36.53400144789567 0 0 0
1431 143 3 0.5564 8.100712721822934 13.043611111777677 -37.05476383838286 0 0 0
3583 681 3 0.5564 2.606941778773793 18.775899075338124 -30.545944603908467 1 0 0
1354 124 3 0.5564 5.682261529826456 16.68194331034504 -30.775657218063387 0 0 0
1648 197 4 -1.1128 2.2746938187595864 13.858240280081207 -27.344494928475072 0 0 0
1280 105 4 -1.1128 1.4836644019782508 15.094213949598595 -31.93872757164893 0 0 0
1430 143 3 0.5564 9.213115800221665 14.070471448678735 -37.05153124367151 0 0 0
1273 104 2 0 10.075808314792638 16.491490124512143 -27.266346042227415 0 0 0
1377 130 2 0 6.553966924849159 15.443272966905361 -36.619303818297446 0 0 0
1010 42 7 -0.65 1.442357520535444 10.979936476171453 -33.27583265747354 0 0 0
1353 124 2 0 5.356269290277723 17.272278842500512 -30.09634749773789 0 0 0
1376 129 4 -1.1128 7.731670236556519 12.263526752127943 -34.0441078969224 0 0 0
1446 147 3 0.5564 8.325336500083381 17.884066731353062 -30.531365904635734 0 0 0
3477 655 2 0 0.47655702529105526 16.69609067992743 -28.16139778671161 1 0 0
1279 105 3 0.5564 2.012585404435584 14.845143322899437 -31.29283118911127 0 0 0
1379 130 3 0.5564 5.80289767815289 15.978440067508577 -36.875662625439 0 0 0
1298 110 3 0.5564 4.3270551229774945 13.329631294079922 -33.412608280727135 0 0 0
1429 143 2 0 9.036098178413152 13.14572150057833 -36.879104528926966 0 0 0
3340 620 4 -1.1128 0.7051192805110387 17.830098418495886 -25.83665800269133 1 0 0
3803 736 3 0.5564 0.5202288771035438 4.295404108924187 -26.23707306182637 1 0 0
1375 129 3 0.5564 8.040915940742249 13.050167037871937 -33.83306312397774 0 0 0
3658 700 3 0.5564 5.97144615832616 15.112944394277235 -26.20156096614346 0 0 0
1494 159 3 0.5564 7.364912326489805 19.034420655353518 -35.51970549105684 0 -1 0
1110 63 3 0.5564 5.203308970123167 0.4288644716669333 -36.10165905584829 0 1 0
1459 150 3 0.5564 8.484813270278913 14.040246411537122 -27.841199812426275 0 0 0
1288 107 4 -1.1128 4.691823809254067 12.466918184644387 -26.543844284086525 0 0 0
3339 620 3 0.5564 0.5684189359390732 17.64386910846471 -26.67666240790549 1 0 0
1531 168 3 0.5564 4.585579376501542 17.606135046157828 -25.065064321484357 0 0 0
3470 653 3 0.5564 10.373665109750291 12.755297721957108 -29.740782841523526 0 0 0
1340 120 4 -1.1128 2.593140542527873 15.492364395882893 -34.47852338413909 0 0 0
1294 109 3 0.5564 2.3912855200066914 17.378695037294783 -33.64140401675129 0 0 0
1293 109 2 0 2.001565279242778 18.25295572944205 -33.64528383699954 0 0 0
1296 109 4 -1.1128 1.929634960180686 18.117369353193894 -33.62674944260641 0 0 0
1447 147 3 0.5564 7.691429770708445 18.65027754847962 -29.38988596518362 0 0 0
4025 792 2 0 3.1849976159147193 14.777370178167123 -29.69999296368093 1 0 0
1292 108 4 -1.1128 5.333763378290575 14.47227745220163 -32.247702614475294 0 0 0
1451 148 3 0.5564 2.1026607510097883 18.651269358131554 -35.519335774658146 0 0 0
1303 111 3 0.5564 6.035623201285309 0.5930729981732432 -29.28732645456144 0 1 0
3497 660 2 0 0.01583217320499041 11.975406238097122 -35.92627842639409 1 0 0
3478 655 3 0.5564 1.4242477839473486 16.71195916283822 -28.29503570837929 1 0 0
1432 143 4 -1.1128 8.936040430019924 13.254259149813448 -36.925030400557155 0 0 0
1126 67 3 0.5564 3.7148998893237564 16.421412756211684 -35.88952083497065 0 -1 0
3346 622 3 0.5564 9.858873393862174 15.665968882705702 -31.227209658446625 0 0 0
1338 120 3 0.5564 2.6289310379283233 14.872149014943268 -35.089283289981736 0 0 0