LAMMPS data file via write_data, version 29 Aug 2024, timestep = 10000, units = real

5484 atoms
7 atom types

0 21.363 xlo xhi
0 19.735 ylo yhi
-50 50 zlo zhi

Masses

1 12
2 15.9994
3 1.008
4 1e-100
5 39.0983
6 1e-100
7 24.01565

Atoms # full

1 0 1 0 7.833 3.7 -40 0 0 0
3 0 1 0 3.561 8.634 -40 0 0 0
43 0 1 0 3.561 8.634 -47.15932 0 0 0
41 0 1 0 7.833 3.7 -47.15932 0 0 0
23 0 1 0 3.561 8.634 -43.57966 0 0 0
21 0 1 0 7.833 3.7 -43.57966 0 0 0
104 0 1 0 4.985 6.167 -47.15932 0 0 0
102 0 1 0 9.257 1.233 -47.15932 0 0 0
101 0 1 0 0.712 1.233 -47.15932 0 0 0
84 0 1 0 4.985 6.167 -43.57966 0 0 0
82 0 1 0 9.257 1.233 -43.57966 0 0 0
81 0 1 0 0.712 1.233 -43.57966 0 0 0
68 0 1 0 4.985 6.167 -40 0 0 0
66 0 1 0 9.257 1.233 -40 0 0 0
65 0 1 0 0.712 1.233 -40 0 0 0
164 0 1 0 4.985 8.634 -47.15932 0 0 0
162 0 1 0 9.257 3.7 -47.15932 0 0 0
161 0 1 0 0.712 3.7 -47.15932 0 0 0
144 0 1 0 4.985 8.634 -43.57966 0 0 0
142 0 1 0 9.257 3.7 -43.57966 0 0 0
141 0 1 0 0.712 3.7 -43.57966 0 0 0
128 0 1 0 4.985 8.634 -40 0 0 0
126 0 1 0 9.257 3.7 -40 0 0 0
125 0 1 0 0.712 3.7 -40 0 0 0
226 0 1 0 2.848 9.867 -47.15932 0 0 0
224 0 1 0 7.121 4.934 -47.15932 0 0 0
221 0 1 0 2.848 0 -47.15932 0 0 0
206 0 1 0 2.848 9.867 -43.57966 0 0 0
204 0 1 0 7.121 4.934 -43.57966 0 0 0
201 0 1 0 2.848 0 -43.57966 0 0 0
189 0 1 0 2.848 9.867 -40 0 0 0
187 0 1 0 7.121 4.934 -40 0 0 0
184 0 1 0 2.848 0 -40 0 0 0
284 0 1 0 7.121 7.4 -47.15932 0 0 0
281 0 1 0 2.848 2.467 -47.15932 0 0 0
264 0 1 0 7.121 7.4 -43.57966 0 0 0
261 0 1 0 2.848 2.467 -43.57966 0 0 0
248 0 1 0 7.121 7.4 -40 0 0 0
245 0 1 0 2.848 2.467 -40 0 0 0
347 0 1 0 9.97 9.867 -47.15932 0 0 0
346 0 1 0 1.424 9.867 -47.15932 0 0 0
344 0 1 0 5.697 4.934 -47.15932 0 0 0
342 0 1 0 9.97 0 -47.15932 0 0 0
341 0 1 0 1.424 0 -47.15932 0 0 0
327 0 1 0 9.97 9.867 -43.57966 0 0 0
326 0 1 0 1.424 9.867 -43.57966 0 0 0
324 0 1 0 5.697 4.934 -43.57966 0 0 0
311 0 1 0 9.97 9.867 -40 0 0 0
310 0 1 0 1.424 9.867 -40 0 0 0
308 0 1 0 5.697 4.934 -40 0 0 0
306 0 1 0 9.97 0 -40 0 0 0
305 0 1 0 1.424 0 -40 0 0 0
303 0 1 0 9.97 0 -43.57966 0 0 0
302 0 1 0 1.424 0 -43.57966 0 0 0
361 0 1 0 5.697 7.4 -43.57966 0 0 0
404 0 1 0 5.697 7.4 -47.15932 0 0 0
402 0 1 0 9.97 2.467 -47.15932 0 0 0
401 0 1 0 1.424 2.467 -47.15932 0 0 0
385 0 1 0 9.97 2.467 -43.57966 0 0 0
384 0 1 0 1.424 2.467 -43.57966 0 0 0
367 0 1 0 5.697 7.4 -40 0 0 0
365 0 1 0 9.97 2.467 -40 0 0 0
364 0 1 0 1.424 2.467 -40 0 0 0
425 0 1 0 3.561 1.233 -40 0 0 0
464 0 1 0 7.833 6.167 -47.15932 0 0 0
461 0 1 0 3.561 1.233 -47.15932 0 0 0
428 0 1 0 7.833 6.167 -40 0 0 0
448 0 1 0 7.833 6.167 -43.57966 0 0 0
445 0 1 0 3.561 1.233 -43.57966 0 0 0
485 0 1 0 3.561 3.7 -40 0 0 0
524 0 1 0 7.833 8.634 -47.15932 0 0 0
488 0 1 0 7.833 8.634 -40 0 0 0
521 0 1 0 3.561 3.7 -47.15932 0 0 0
508 0 1 0 7.833 8.634 -43.57966 0 0 0
505 0 1 0 3.561 3.7 -43.57966 0 0 0
584 0 1 0 9.257 6.167 -47.15932 0 0 0
583 0 1 0 0.712 6.167 -47.15932 0 0 0
581 0 1 0 4.985 1.233 -47.15932 0 0 0
567 0 1 0 9.257 6.167 -43.57966 0 0 0
566 0 1 0 0.712 6.167 -43.57966 0 0 0
564 0 1 0 4.985 1.233 -43.57966 0 0 0
547 0 1 0 9.257 6.167 -40 0 0 0
546 0 1 0 0.712 6.167 -40 0 0 0
544 0 1 0 4.985 1.233 -40 0 0 0
644 0 1 0 9.257 8.634 -47.15932 0 0 0
643 0 1 0 0.712 8.634 -47.15932 0 0 0
628 0 1 0 9.257 8.634 -43.57966 0 0 0
627 0 1 0 0.712 8.634 -43.57966 0 0 0
625 0 1 0 4.985 3.7 -43.57966 0 0 0
608 0 1 0 9.257 8.634 -40 0 0 0
607 0 1 0 0.712 8.634 -40 0 0 0
605 0 1 0 4.985 3.7 -40 0 0 0
604 0 1 0 4.985 3.7 -47.15932 0 0 0
706 0 1 0 7.121 9.867 -47.15932 0 0 0
705 0 1 0 7.121 0 -47.15932 0 0 0
690 0 1 0 7.121 9.867 -43.57966 0 0 0
687 0 1 0 2.848 4.934 -43.57966 0 0 0
685 0 1 0 7.121 0 -43.57966 0 0 0
670 0 1 0 7.121 9.867 -40 0 0 0
667 0 1 0 2.848 4.934 -40 0 0 0
665 0 1 0 7.121 0 -40 0 0 0
662 0 1 0 2.848 4.934 -47.15932 0 0 0
767 0 1 0 2.848 7.4 -47.15932 0 0 0
765 0 1 0 7.121 2.467 -47.15932 0 0 0
747 0 1 0 2.848 7.4 -43.57966 0 0 0
745 0 1 0 7.121 2.467 -43.57966 0 0 0
727 0 1 0 2.848 7.4 -40 0 0 0
725 0 1 0 7.121 2.467 -40 0 0 0
830 0 1 0 5.697 9.867 -47.15932 0 0 0
828 0 1 0 9.97 4.934 -47.15932 0 0 0
827 0 1 0 1.424 4.934 -47.15932 0 0 0
825 0 1 0 5.697 0 -47.15932 0 0 0
810 0 1 0 5.697 9.867 -43.57966 0 0 0
808 0 1 0 9.97 4.934 -43.57966 0 0 0
807 0 1 0 1.424 4.934 -43.57966 0 0 0
805 0 1 0 5.697 0 -43.57966 0 0 0
790 0 1 0 5.697 9.867 -40 0 0 0
788 0 1 0 9.97 4.934 -40 0 0 0
787 0 1 0 1.424 4.934 -40 0 0 0
785 0 1 0 5.697 0 -40 0 0 0
888 0 1 0 9.97 7.4 -47.15932 0 0 0
887 0 1 0 1.424 7.4 -47.15932 0 0 0
885 0 1 0 5.697 2.467 -47.15932 0 0 0
868 0 1 0 9.97 7.4 -43.57966 0 0 0
867 0 1 0 1.424 7.4 -43.57966 0 0 0
865 0 1 0 5.697 2.467 -43.57966 0 0 0
848 0 1 0 9.97 7.4 -40 0 0 0
847 0 1 0 1.424 7.4 -40 0 0 0
845 0 1 0 5.697 2.467 -40 0 0 0
905 0 1 0 7.833 1.233 -40 0 0 0
907 0 1 0 3.561 6.167 -40 0 0 0
947 0 1 0 3.561 6.167 -47.15932 0 0 0
945 0 1 0 7.833 1.233 -47.15932 0 0 0
927 0 1 0 3.561 6.167 -43.57966 0 0 0
925 0 1 0 7.833 1.233 -43.57966 0 0 0
750 0 1 0 7.121 12.334 -43.57966 0 0 0
732 0 1 0 2.848 17.268 -40 0 0 0
730 0 1 0 7.121 12.334 -40 0 0 0
723 0 1 0 2.848 17.268 -47.15932 0 0 0
781 0 1 0 9.97 14.801 -47.15932 0 0 0
832 0 1 0 1.424 14.801 -47.15932 0 0 0
813 0 1 0 9.97 14.801 -43.57966 0 0 0
932 0 1 0 3.561 16.034 -43.57966 0 0 0
950 0 1 0 7.833 11.101 -47.15932 0 0 0
812 0 1 0 1.424 14.801 -43.57966 0 0 0
952 0 1 0 3.561 16.034 -47.15932 0 0 0
912 0 1 0 3.561 16.034 -40 0 0 0
852 0 1 0 1.424 17.268 -40 0 0 0
892 0 1 0 1.424 17.268 -47.15932 0 0 0
893 0 1 0 9.97 17.268 -47.15932 0 0 0
853 0 1 0 9.97 17.268 -40 0 0 0
910 0 1 0 7.833 11.101 -40 0 0 0
793 0 1 0 9.97 14.801 -40 0 0 0
870 0 1 0 5.697 12.334 -43.57966 0 0 0
872 0 1 0 1.424 17.268 -43.57966 0 0 0
792 0 1 0 1.424 14.801 -40 0 0 0
930 0 1 0 7.833 11.101 -43.57966 0 0 0
890 0 1 0 5.697 12.334 -47.15932 0 0 0
873 0 1 0 9.97 17.268 -43.57966 0 0 0
850 0 1 0 5.697 12.334 -40 0 0 0
48 0 1 0 3.561 18.501 -47.15932 0 0 0
46 0 1 0 7.833 13.568 -47.15932 0 0 0
6 0 1 0 7.833 13.568 -40 0 0 0
8 0 1 0 3.561 18.501 -40 0 0 0
28 0 1 0 3.561 18.501 -43.57966 0 0 0
26 0 1 0 7.833 13.568 -43.57966 0 0 0
109 0 1 0 4.985 16.034 -47.15932 0 0 0
107 0 1 0 9.257 11.101 -47.15932 0 0 0
106 0 1 0 0.712 11.101 -47.15932 0 0 0
89 0 1 0 4.985 16.034 -43.57966 0 0 0
87 0 1 0 9.257 11.101 -43.57966 0 0 0
86 0 1 0 0.712 11.101 -43.57966 0 0 0
69 0 1 0 4.985 16.034 -40 0 0 0
63 0 1 0 9.257 11.101 -40 0 0 0
62 0 1 0 0.712 11.101 -40 0 0 0
121 0 1 0 4.985 18.501 -40 0 0 0
169 0 1 0 4.985 18.501 -47.15932 0 0 0
167 0 1 0 9.257 13.568 -47.15932 0 0 0
166 0 1 0 0.712 13.568 -47.15932 0 0 0
149 0 1 0 4.985 18.501 -43.57966 0 0 0
147 0 1 0 9.257 13.568 -43.57966 0 0 0
146 0 1 0 0.712 13.568 -43.57966 0 0 0
131 0 1 0 9.257 13.568 -40 0 0 0
130 0 1 0 0.712 13.568 -40 0 0 0
229 0 1 0 7.121 14.801 -47.15932 0 0 0
209 0 1 0 7.121 14.801 -43.57966 0 0 0
192 0 1 0 7.121 14.801 -40 0 0 0
289 0 1 0 7.121 17.268 -47.15932 0 0 0
286 0 1 0 2.848 12.334 -47.15932 0 0 0
269 0 1 0 7.121 17.268 -43.57966 0 0 0
266 0 1 0 2.848 12.334 -43.57966 0 0 0
253 0 1 0 7.121 17.268 -40 0 0 0
250 0 1 0 2.848 12.334 -40 0 0 0
349 0 1 0 5.697 14.801 -47.15932 0 0 0
329 0 1 0 5.697 14.801 -43.57966 0 0 0
313 0 1 0 5.697 14.801 -40 0 0 0
409 0 1 0 5.697 17.268 -47.15932 0 0 0
407 0 1 0 9.97 12.334 -47.15932 0 0 0
406 0 1 0 1.424 12.334 -47.15932 0 0 0
389 0 1 0 5.697 17.268 -43.57966 0 0 0
387 0 1 0 9.97 12.334 -43.57966 0 0 0
372 0 1 0 5.697 17.268 -40 0 0 0
370 0 1 0 9.97 12.334 -40 0 0 0
369 0 1 0 1.424 12.334 -40 0 0 0
363 0 1 0 1.424 12.334 -43.57966 0 0 0
423 0 1 0 7.833 16.034 -43.57966 0 0 0
469 0 1 0 7.833 16.034 -47.15932 0 0 0
466 0 1 0 3.561 11.101 -47.15932 0 0 0
450 0 1 0 3.561 11.101 -43.57966 0 0 0
430 0 1 0 3.561 11.101 -40 0 0 0
433 0 1 0 7.833 16.034 -40 0 0 0
529 0 1 0 7.833 18.501 -47.15932 0 0 0
526 0 1 0 3.561 13.568 -47.15932 0 0 0
490 0 1 0 3.561 13.568 -40 0 0 0
493 0 1 0 7.833 18.501 -40 0 0 0
513 0 1 0 7.833 18.501 -43.57966 0 0 0
510 0 1 0 3.561 13.568 -43.57966 0 0 0
589 0 1 0 9.257 16.034 -47.15932 0 0 0
588 0 1 0 0.712 16.034 -47.15932 0 0 0
586 0 1 0 4.985 11.101 -47.15932 0 0 0
572 0 1 0 9.257 16.034 -43.57966 0 0 0
571 0 1 0 0.712 16.034 -43.57966 0 0 0
569 0 1 0 4.985 11.101 -43.57966 0 0 0
552 0 1 0 9.257 16.034 -40 0 0 0
551 0 1 0 0.712 16.034 -40 0 0 0
549 0 1 0 4.985 11.101 -40 0 0 0
649 0 1 0 9.257 18.501 -47.15932 0 0 0
648 0 1 0 0.712 18.501 -47.15932 0 0 0
646 0 1 0 4.985 13.568 -47.15932 0 0 0
633 0 1 0 9.257 18.501 -43.57966 0 0 0
632 0 1 0 0.712 18.501 -43.57966 0 0 0
630 0 1 0 4.985 13.568 -43.57966 0 0 0
613 0 1 0 9.257 18.501 -40 0 0 0
612 0 1 0 0.712 18.501 -40 0 0 0
610 0 1 0 4.985 13.568 -40 0 0 0
708 0 1 0 2.848 14.801 -47.15932 0 0 0
692 0 1 0 2.848 14.801 -43.57966 0 0 0
672 0 1 0 2.848 14.801 -40 0 0 0
721 0 1 0 7.121 12.334 -47.15932 0 0 0
752 0 1 0 2.848 17.268 -43.57966 0 0 0
1118 45 3 0.5564 2.794998485304915 3.16986423322053 -37.531324097741866 0 0 0
1055 29 3 0.5564 8.82695235309884 0.3185609407596655 -37.86652144120197 0 0 0
3271 583 3 0.5564 10.118429910069857 15.46541756000585 -37.582030368473866 0 0 0
1037 25 2 0 3.8190049610998185 2.3160276546167555 -33.75830655925083 0 0 0
1038 25 3 0.5564 3.257341180473105 2.371429248791324 -32.985200397203855 0 0 0
1039 25 3 0.5564 4.55365374476899 1.767923717955198 -33.482440801735514 0 0 0
1040 25 4 -1.1128 3.841828305018678 2.25102135456513 -33.619907007495925 0 0 0
1117 45 2 0 2.6053385126844724 2.53700868570687 -36.838683045199645 0 0 0
1053 29 2 0 8.352058655245274 0.2794886116208028 -37.0363539847604 0 0 0
1056 29 4 -1.1128 8.492718554279433 0.3381927139554011 -37.062234115609954 0 0 0
1092 38 4 -1.1128 5.044737133016201 2.4906835596078647 -27.133257749762357 0 0 0
1169 58 2 0 1.7618423046748823 2.2214431727051234 -29.586770728944355 0 0 0
1089 38 2 0 5.021849212723147 2.639161112656653 -27.169750479795923 0 0 0
1120 45 4 -1.1128 2.662976486046488 2.679640834237941 -36.823350262277756 0 0 0
1093 39 2 0 2.9655068482482836 5.247201524494315 -29.837744188278478 0 0 0
1094 39 3 0.5564 3.41582914093502 4.405596433202894 -29.909433656973572 0 0 0
1096 39 4 -1.1128 3.0885035316229024 5.198571039686604 -29.757693880182806 0 0 0
3263 581 3 0.5564 0.95888788750189 3.1481723115906974 -36.60555693287428 1 0 0
1090 38 3 0.5564 5.804288055834434 2.2443294655284216 -26.784878937438343 0 0 0
1109 43 2 0 5.556219538873626 7.771296305421323 -29.780360777703482 0 0 0
1110 43 3 0.5564 6.3835818371434705 7.531937435644514 -29.362739375281638 0 0 0
1111 43 3 0.5564 5.722660188384014 7.671032653698505 -30.71762988912973 0 0 0
1112 43 4 -1.1128 5.687340191333878 7.726487093787676 -29.848922203091004 0 0 0
1133 49 2 0 5.875604655806005 7.530811310775005 -32.48460556640179 0 0 0
1134 49 3 0.5564 6.511992038271265 6.8256221130313195 -32.602707097826105 0 0 0
1135 49 3 0.5564 6.244984919123949 8.27064774459835 -32.96671442253166 0 0 0
1136 49 4 -1.1128 6.008303909951977 7.535382607540482 -32.56379629309998 0 0 0
1157 55 2 0 1.2985960944866333 2.7113197408949006 -32.187096478138685 0 0 0
1158 55 3 0.5564 1.0094755679242517 3.622939549865772 -32.14725526941917 0 0 0
1159 55 3 0.5564 1.485797462011113 2.4789534116380647 -31.277596497971174 0 0 0
1160 55 4 -1.1128 1.285149055854779 2.800939277287838 -32.06184203371155 0 0 0
1161 56 2 0 3.221920766043127 4.396893884759365 -26.112817455931687 0 0 0
1258 80 3 0.5564 6.635163479286948 3.754875420083841 -36.650333300869285 0 0 0
1170 58 3 0.5564 1.486013185614568 3.01900115486712 -29.135053738929507 0 0 0
3524 646 4 -1.1128 10.084205855641928 6.70373137795159 -30.22285098838078 0 0 0
1172 58 4 -1.1128 1.8505903742302992 2.3225959714063857 -29.510658630923814 0 0 0
3476 634 4 -1.1128 8.375813529221622 5.9855175223810875 -32.375373757023866 0 0 0
1005 17 2 0 2.897210829740915 8.553116373070917 -34.05452271659204 0 0 0
1008 17 4 -1.1128 2.920787672842044 8.401557280469179 -34.073891090791314 0 0 0
1027 22 3 0.5564 4.422090836516445 7.317295596606401 -36.72801857390489 0 0 0
1257 80 2 0 6.874971677982263 4.675839481532349 -36.54764005737819 0 0 0
1260 80 4 -1.1128 6.73530254735803 4.611906151970851 -36.53014081962763 0 0 0
3332 598 4 -1.1128 3.6974762746368426 6.7831737750510115 -27.53985971213224 1 0 0
1671 183 3 0.5564 5.512223567013848 5.448064719406849 -26.05175348906609 0 0 0
1289 88 2 0 6.223984309229659 1.968660351333902 -36.69800953158072 0 0 0
1290 88 3 0.5564 6.324944043151607 1.7415720451493482 -35.773635846202005 0 0 0
1291 88 3 0.5564 6.940153533061606 1.5101056497468452 -37.137393083148545 0 0 0
1292 88 4 -1.1128 6.33179489917022 1.8781977915934351 -36.63402076708359 0 0 0
1018 20 3 0.5564 7.983557562150143 3.961541365225089 -32.58746294607168 0 0 0
1313 94 2 0 3.3898681296224655 6.399900438975028 -32.410661694076005 0 0 0
1314 94 3 0.5564 3.205246079872813 6.1445863738253985 -31.506804347044376 0 0 0
1315 94 3 0.5564 4.318889093729979 6.630439356533367 -32.40993187230369 0 0 0
1316 94 4 -1.1128 3.4880828426692703 6.396631648593366 -32.291312018120955 0 0 0
1007 17 3 0.5564 3.104372771418019 8.091549332611518 -34.86709177456935 0 0 0
1345 102 2 0 8.662652561154735 6.814015904790533 -27.604682891615237 0 0 0
1347 102 3 0.5564 8.200217760538138 5.999499066201438 -27.8020278984776 0 0 0
1348 102 4 -1.1128 8.70998457072715 6.697828040778709 -27.695022368734637 0 0 0
1353 104 2 0 4.224300235276259 4.8820631620823125 -34.667078487128165 0 0 0
1354 104 3 0.5564 3.869045324373917 5.412796036833235 -33.95409514872651 0 0 0
1355 104 3 0.5564 4.047716852182543 3.9786107205634478 -34.404741544192625 0 0 0
1356 104 4 -1.1128 4.154130405062057 4.832887183193867 -34.53839640590442 0 0 0
1425 122 2 0 4.578218402492332 2.869958246168759 -29.869905736836415 0 0 0
1370 108 3 0.5564 6.052940410654831 19.283117201402145 -30.160504335677913 0 -1 0
1641 176 2 0 4.35608662161705 11.618732986099825 -25.068397655576874 0 0 0
1028 22 4 -1.1128 3.95024783395258 6.59213008042296 -36.625671634674156 0 0 0
1047 27 3 0.5564 6.308532934075538 9.463555775445945 -29.70058233830612 0 0 0
1069 33 2 0 0.5994601082036831 7.242687674566539 -29.942832016976414 0 0 0
1248 77 4 -1.1128 7.530077472260878 4.017365116942725 -28.810146657264777 0 0 0
1071 33 3 0.5564 1.3931565260711865 7.763677499786834 -29.82099493238736 0 0 0
1072 33 4 -1.1128 0.6178357736147929 7.367725251348325 -29.853786526842235 0 0 0
3475 634 3 0.5564 8.793778584221728 6.217635258488302 -33.10366100137407 0 0 0
1006 17 3 0.5564 2.868744888530683 7.865971367301256 -33.388752404745034 0 0 0
3522 646 3 0.5564 9.931527802009688 5.904186056643457 -29.91237968211663 0 0 0
1066 32 3 0.5564 2.1032105861787764 6.305216120410634 -36.73344010921437 0 0 0
1209 68 2 0 0.5892952242835898 4.3944053139676145 -28.59094225399151 0 0 0
1020 20 4 -1.1128 8.13127827234021 3.1030847489789437 -32.601835513836456 0 0 0
1212 68 4 -1.1128 0.6553906943652524 4.5214869724576445 -28.532780403005592 0 0 0
1229 73 2 0 6.591187098440379 0.9722472608380339 -34.080286172904415 0 1 0
1230 73 3 0.5564 6.876738071941387 0.10575191018280516 -33.790674146694265 0 1 0
1231 73 3 0.5564 7.076027006580101 1.5827592510113417 -33.52491778144722 0 1 0
1232 73 4 -1.1128 6.6928311469670865 0.9384732563230274 -33.96880090922296 0 1 0
1119 45 3 0.5564 2.8525341135871574 2.9852051845241787 -36.02983020923858 0 0 0
1426 122 3 0.5564 4.846305379873284 2.8826068696570744 -28.951103221720906 0 0 0
1259 80 3 0.5564 6.05618543618436 5.112233567256532 -36.31231481630242 0 0 0
1428 122 4 -1.1128 4.689843546598494 2.7867067710614988 -29.802747869868032 0 0 0
1171 58 3 0.5564 2.7103197936074723 2.1905527416827884 -29.461611186122536 0 0 0
1017 20 2 0 8.098676047944629 3.0219396447992213 -32.729325619460866 0 0 0
3521 646 2 0 9.974393294287053 6.812070779625831 -30.212607189595655 0 0 0
3473 634 2 0 8.247058592541833 5.90046433802851 -32.384822678235814 0 0 0
1346 102 3 0.5564 9.483830929278264 6.747909900336319 -28.092048012239474 0 0 0
1025 22 2 0 3.845365178204991 6.553360575704232 -36.7324317116093 0 0 0
1427 122 3 0.5564 5.156172038680838 2.226321598930869 -30.279698535270995 0 0 0
1388 112 4 -1.1128 7.946341635375279 7.429799384928243 -35.631592451164785 0 0 0
1504 141 4 -1.1128 5.6929101233035775 10.113715162940029 -26.988670581844282 0 0 0
3329 598 2 0 3.6953870710810484 6.635478937172817 -27.58549993663472 1 0 0
3548 652 4 -1.1128 6.706755494376017 1.20673801192661 -29.162718414831833 1 0 0
3474 634 3 0.5564 8.676211075660843 6.227937138765195 -31.594368133109754 0 0 0
3547 652 3 0.5564 7.562602500087582 1.3669373658337594 -29.133773454609404 1 0 0
1385 112 2 0 7.8841596884702305 7.5712245790125 -35.63737863793397 0 0 0
1095 39 3 0.5564 3.447413492890429 5.720221513080143 -29.159329305520092 0 0 0
1019 20 3 0.5564 8.460896619494413 2.6973611279544145 -31.90490235386911 0 0 0
1068 32 4 -1.1128 1.2672215113247716 6.2590766224054715 -36.492672265953345 0 0 0
1386 112 3 0.5564 8.757392703060182 7.327264910627291 -35.33049680508703 0 0 0
1191 63 3 0.5564 3.7212305123695533 8.20970629800786 -30.027585295682666 0 0 0
1065 32 2 0 1.1862959579931598 6.3891411444180894 -36.471805188256624 0 0 0
3546 652 3 0.5564 6.283974344581898 0.9221749345517897 -28.456138132575294 1 0 0
3545 652 2 0 6.629135408440156 1.2290282081426431 -29.294549478743036 1 0 0
1307 92 3 0.5564 0.2389401861151439 0.8550797826729521 -29.174447060987127 0 1 0
3241 576 2 0 9.748921530182432 4.268883823546621 -36.904511876472526 0 0 0
3244 576 4 -1.1128 9.614200833421366 4.19743559224372 -36.879082678531965 0 0 0
1245 77 2 0 7.497535182034384 4.132433382630971 -28.712159650073446 0 0 0
1387 112 3 0.5564 7.482222392544303 6.743280072623014 -35.90040521716733 0 0 0
3554 654 3 0.5564 8.141695800799251 2.1478838695460634 -26.214163287479373 0 0 0
1091 38 3 0.5564 4.412884816459146 1.9086366306745903 -27.278032621479948 0 0 0
3553 654 2 0 7.442521649444777 1.4957042372322111 -26.168931548924714 0 0 0
3556 654 4 -1.1128 7.591669044512957 1.4723802597116797 -26.202281310797883 0 0 0
1501 141 2 0 5.703767048501254 10.09459364860029 -27.141698863101723 0 0 0
1333 99 2 0 10.121350319991102 5.815443256450298 -34.49715352893621 0 0 0
1336 99 4 -1.1128 10.226177646370155 5.793417301631993 -34.60863110048565 0 0 0
1189 63 2 0 2.980437285951449 8.806269065914991 -30.13513498903415 0 0 0
1192 63 4 -1.1128 3.0865318900867567 8.806455310783571 -30.0226847320926 0 0 0
1062 31 3 0.5564 8.863717114787383 8.564829132782824 -26.713445946882093 0 0 0
3361 606 2 0 9.222154111583412 9.239171075016369 -31.01885263096495 0 0 0
1301 91 2 0 0.24005288670482614 0.05547813700120717 -26.19178611848744 0 0 0
1064 31 4 -1.1128 8.932308159769695 9.200831479896262 -26.122030674916257 0 0 0
1672 183 4 -1.1128 5.679006397933748 5.587615811654769 -25.208139406168733 0 0 0
1061 31 2 0 8.995449924579471 9.336135611141518 -26.162118947573894 0 0 0
1502 141 3 0.5564 5.777925514232447 9.425763785854862 -26.46096704104524 0 0 0
1054 29 3 0.5564 8.94326873030417 0.6853523688440999 -36.40233984089493 0 0 0
1270 83 3 0.5564 7.620567338924997 9.651030749219014 -34.07603569275481 0 0 0
1190 63 3 0.5564 3.043767043631579 9.404243439819583 -29.390390289928778 0 0 0
1269 83 2 0 6.676456241309083 9.76117855151449 -33.96311813916813 0 0 0
1272 83 4 -1.1128 6.787243353065294 9.866950383113451 -33.94214922148221 0 0 0
3450 628 3 0.5564 9.278816455583152 4.010164788838383 -25.624523253550944 0 0 0
1335 99 3 0.5564 10.060627182888357 5.228433443878044 -35.25078530736933 0 0 0
3330 598 3 0.5564 4.383588700090521 7.284372765279733 -27.73227866320463 1 0 0
3331 598 3 0.5564 3.0230201455549857 7.106008803969871 -27.09280019154589 1 0 0
3598 665 3 0.5564 0.6582008198819874 5.778948783983844 -31.33278930221299 1 0 0
1609 168 2 0 1.8250070008777368 7.819194254622488 -26.097706757178127 0 0 0
991 13 3 0.5564 8.845299126324807 2.4795235188665656 -34.31309264647204 0 0 0
1162 56 3 0.5564 3.8637152326990667 3.720463093510397 -26.329081008385973 0 0 0
1215 69 3 0.5564 10.138878631735595 9.384528077063765 -33.92223873016367 0 0 0
3262 581 3 0.5564 0.06413196765960363 3.3818817824320004 -35.40693900494801 1 0 0
1246 77 3 0.5564 6.881716518812641 3.598684946201588 -29.214263879827538 0 0 0
992 13 4 -1.1128 9.44851057334534 2.159188066666247 -34.853922461799364 0 0 0
1026 22 3 0.5564 4.063576781852106 6.083271317086772 -35.927678046276725 0 0 0
1164 56 4 -1.1128 3.3423860182574177 4.408059646315495 -26.209070293696712 0 0 0
1247 77 3 0.5564 8.360001671878365 3.7940447491841818 -28.95272848336278 0 0 0
3555 654 3 0.5564 7.873780561771349 0.6667451489063456 -26.376467707992976 0 0 0
3261 581 2 0 0.20958010816125383 3.6650858940004274 -36.309639922481246 1 0 0
3448 627 4 -1.1128 10.434186221063761 4.218062318083556 -29.467981876667476 0 0 0
1210 68 3 0.5564 0.4762943581967176 4.765410668618725 -27.715833970415222 0 0 0
3242 576 3 0.5564 9.603745703119294 3.4319073482740574 -36.46335086734225 0 0 0
3453 629 2 0 9.256476470396814 1.8392901547945792 -30.663042058544974 0 0 0
1067 32 3 0.5564 0.8827404913330896 5.487267951649956 -36.36832813898007 0 0 0
1211 68 3 0.5564 1.2032535808160574 4.986590154350644 -29.02522433762436 0 0 0
3264 581 4 -1.1128 0.2892523108004534 3.5595197409579775 -36.229581896909565 1 0 0
3589 663 2 0 10.668672336889081 11.939771175938601 -36.58167928716701 0 0 0
989 13 2 0 9.45241927111564 2.206699938475774 -35.00098878737696 0 0 0
3456 629 4 -1.1128 9.347861840185322 1.7527885920965447 -30.57322360921849 0 0 0
1612 168 4 -1.1128 1.7425244639254187 7.752598719470883 -25.985177535214312 0 0 0
3363 606 3 0.5564 8.482586283554028 9.583914583437352 -30.518432789186587 0 0 0
990 13 3 0.5564 10.029914217333848 1.573769560468337 -34.57422491755225 0 0 0
1085 37 2 0 0.1298301163288924 9.528050196437965 -32.1148568976794 0 0 0
1611 168 3 0.5564 2.0131675803505504 7.811850686507108 -25.15921309963971 0 0 0
1302 91 3 0.5564 0.41598856042900406 18.95290587383061 -25.763127723517083 0 -1 0
1163 56 3 0.5564 3.4931687569202867 5.157953348459894 -26.62608317372025 0 0 0
1045 27 2 0 6.996800290666458 10.128178212705638 -29.67240897069881 0 0 0
1046 27 3 0.5564 6.814235051545674 10.629178539919353 -28.877489300231083 0 0 0
1048 27 4 -1.1128 6.881904135056923 10.106590192792764 -29.571245781630896 0 0 0
3452 628 4 -1.1128 9.615167155486617 3.3305335634568833 -26.05341175311801 0 0 0
3604 666 4 -1.1128 10.379100678440798 10.92234064632351 -29.228264372825077 0 0 0
3455 629 3 0.5564 9.931767406556489 2.1380212275421138 -30.053968520607526 0 0 0
1114 44 3 0.5564 3.7526704174011294 9.6805693288903 -33.116463754604524 0 0 0
3362 606 3 0.5564 9.384732097907591 8.37446181878382 -30.641924285720766 0 0 0
1610 168 3 0.5564 1.0116864117073274 7.321790188396046 -26.183307522554053 0 0 0
3364 606 4 -1.1128 9.14602706378555 9.17056768813538 -30.903096819438964 0 0 0
3449 628 2 0 9.613516914688535 3.3291634568757194 -26.2079968737256 0 0 0
3600 665 4 -1.1128 0.3554991494874152 5.392657689024312 -32.05259943662018 1 0 0
3588 662 4 -1.1128 5.738776638812524 15.233550029444052 -25.939630474508288 0 0 0
3315 594 3 0.5564 9.403549816311724 12.311353441025926 -25.612769981685013 0 0 0
3454 629 3 0.5564 9.27382279751905 0.88493766479576 -30.59135449568812 0 0 0
1271 83 3 0.5564 6.572034057480084 10.673002947564171 -33.6912708379252 0 0 0
3451 628 3 0.5564 9.960725046223159 2.6585465756733697 -25.619823269300294 0 0 0
1115 44 3 0.5564 3.4431337919347906 9.707811981635148 -31.63479640821188 0 0 0
3490 638 3 0.5564 0.18654974780102396 12.012394237135762 -25.232984661896545 1 0 0
962 2 5 0.85 3.835285854158804 0.06666038336770713 -36.04224723780197 0 0 0
1213 69 2 0 9.23993061461183 9.522775987439996 -33.62389554742635 0 0 0
3563 656 3 0.5564 1.049625191425631 0.05926176225901175 -35.209634211132844 1 0 0
1052 28 4 -1.1128 8.306313094317469 10.278082385323936 -36.73871828027005 0 0 0
1049 28 2 0 8.43307068996609 10.344626913805685 -36.79707492234722 0 0 0
3316 594 4 -1.1128 9.945243455168859 12.706622810723395 -25.056617243760687 0 0 0
1113 44 2 0 3.864498350389715 10.213856808855612 -32.32949002313968 0 0 0
1116 44 4 -1.1128 3.7941498496923303 10.076729090985978 -32.34166530307467 0 0 0
1078 35 3 0.5564 2.4309706086685487 9.571364763437597 -27.01088456363197 0 0 0
3597 665 2 0 0.3319490882013373 5.239863631073432 -32.05332776918538 1 0 0
1063 31 3 0.5564 8.648612266496368 9.081931295011593 -25.306950846264954 0 0 0
3592 663 4 -1.1128 10.638717645372497 11.799973304497591 -36.64050472041413 0 0 0
3243 576 3 0.5564 8.873008588573212 4.564332617632339 -37.1529373294655 0 0 0
1050 28 3 0.5564 8.296993060433579 9.418638243793048 -36.59643460075401 0 0 0
1319 95 3 0.5564 1.7190159852293223 17.281867092724564 -25.323068239184632 0 0 0
3591 663 3 0.5564 9.830879182556576 11.477005502823813 -36.59506731316835 0 0 0
1369 108 2 0 6.031979364160339 18.60895365659852 -30.839689749455065 0 -1 0
1371 108 3 0.5564 6.004634274771897 17.78280493591465 -30.357031263257294 0 -1 0
1372 108 4 -1.1128 6.031137064515869 18.588900993774146 -30.686398062645377 0 -1 0
1031 23 3 0.5564 0.1358017111746088 8.108429685287552 -36.69790043062115 0 0 0
1088 37 4 -1.1128 0.06306521699536621 9.388847743329444 -32.106715321323584 0 0 0
3383 611 3 0.5564 0.31013764864364224 6.737459633946447 -34.818030871875706 1 0 0
3251 578 3 0.5564 5.174088213316965 9.605333491432114 -36.98794356826902 1 0 0
1308 92 4 -1.1128 0.017565603756026747 0.1375176109782156 -28.732775729635332 0 1 0
1303 91 3 0.5564 1.1059990343230486 0.43443858132407887 -26.342633484933888 0 0 0
3351 603 3 0.5564 3.2229687487596923 10.070397271436395 -36.36691495210485 1 0 0
1137 50 2 0 0.9541443036049979 19.70934270029651 -33.254881893321134 0 -1 0
3601 666 2 0 10.510018812100888 11.001952939767822 -29.24884312428125 0 0 0
3323 596 3 0.5564 9.022166141477975 13.054850013738923 -36.91041000935521 0 0 0
1225 72 2 0 9.561392375228424 18.97977817782732 -29.899954069873562 0 -1 0
1727 197 3 0.5564 2.4798653735179172 14.123706982552402 -25.01340354791521 0 0 0
3492 638 4 -1.1128 0.3282392241849438 11.8446045926005 -26.07604247033484 1 0 0
1139 50 3 0.5564 0.5124694160765171 0.6661896323608147 -32.76243921318475 0 0 0
1214 69 3 0.5564 9.299590164908691 9.510859402866696 -32.66863254177269 0 0 0
1320 95 4 -1.1128 0.8650935682243857 17.110556845756687 -25.34416435068193 0 0 0
1086 37 3 0.5564 0.530822759924521 8.675229143994983 -32.2825763932437 0 0 0
1077 35 2 0 2.8546883588130063 10.127817894188011 -27.664376612849512 0 0 0
1176 59 4 -1.1128 5.527144155184843 18.740470712821036 -27.08426987188289 0 0 0
3272 583 4 -1.1128 10.203675576802173 15.993443032421382 -36.89435455991019 0 0 0
3269 583 2 0 10.344093642149318 16.02057812460578 -36.83563817636771 0 0 0
1317 95 2 0 0.7860081731446689 17.131708951022997 -25.475310256938627 0 0 0
3535 649 3 0.5564 0.07104497191002446 15.70521756261035 -30.497321703923426 1 0 0
1228 72 4 -1.1128 9.604952247474762 18.849437862975392 -29.970771439594436 0 -1 0
3564 656 4 -1.1128 1.0926715367142612 19.678600052452307 -36.07204079850442 1 -1 0
1227 72 3 0.5564 9.140178637766107 18.12126532056587 -29.857961949305565 0 -1 0
3561 656 2 0 1.2243257711168816 19.628992670714403 -36.13613003504981 1 -1 0
1740 200 4 -1.1128 8.567974176410226 11.884137168469758 -27.274973717382743 0 0 0
3599 665 3 0.5564 0.1841903695386332 5.858850699020205 -32.76834598410987 1 0 0
1739 200 3 0.5564 8.639649684358126 11.074444418952538 -26.96154746794014 0 0 0
1193 64 2 0 0.4449875703454385 14.27459549214638 -36.030209960438185 0 0 0
1285 87 2 0 9.06800501499005 12.308906587817223 -33.53754482853539 0 0 0
3610 668 3 0.5564 8.573554647023968 15.969497113194164 -26.95550054255538 0 0 0
3327 597 3 0.5564 4.190025409356372 14.09535765062578 -29.170844270746453 0 0 0
1737 200 2 0 8.69293004275493 11.955828658873784 -27.331076495118733 0 0 0
1725 197 2 0 2.57170329463116 13.542256810554557 -25.768195022846733 0 0 0
1226 72 3 0.5564 10.312759514394283 18.850402501253736 -30.478692381542004 0 -1 0
3322 596 3 0.5564 8.615412798171317 14.195979115689482 -36.00251722912711 0 0 0
3445 627 2 0 10.286036625497765 4.173972332898776 -29.47097027758394 0 0 0
1288 87 4 -1.1128 8.974602867309438 12.235073362132258 -33.4389250861224 0 0 0
3612 668 4 -1.1128 8.154889628431881 16.185183078976014 -26.2225783725591 0 0 0
3609 668 2 0 8.022008874701877 16.263788594847057 -26.230642996716064 0 0 0
1221 71 2 0 3.1869675010719045 0.15562672228710078 -27.087164066744418 0 0 0
1324 96 4 -1.1128 8.89174991861485 18.79518501967936 -26.89572502877945 0 0 0
1503 141 3 0.5564 5.547320674169609 10.90835123219134 -26.66258321526026 0 0 0
1138 50 3 0.5564 1.8386213338595847 19.68218959173818 -32.889927418697745 0 -1 0
3350 603 3 0.5564 1.8551940016707884 10.42582543124196 -36.909829562741955 1 0 0
1380 110 4 -1.1128 2.62973746294795 16.611820888918352 -32.89795650440607 0 0 0
1323 96 3 0.5564 8.514983075278357 18.02132410782953 -26.760959396019565 0 0 0
1332 98 4 -1.1128 1.5108468894020266 16.83298434558103 -35.443346107493085 0 0 0
1287 87 3 0.5564 9.063237922172783 11.376355142170734 -33.321781641339925 0 0 0
3250 578 3 0.5564 5.2573720325468845 9.628989259030398 -35.47652125133908 1 0 0
3328 597 4 -1.1128 4.476786441353959 13.51831918608443 -29.757163690403914 0 0 0
3614 669 3 0.5564 4.723488412804506 19.256915388118994 -32.06845723646063 1 -1 0
1098 40 3 0.5564 6.973499541401351 18.482230771902042 -32.3872526598787 0 0 0
3252 578 4 -1.1128 4.916769985583589 9.307047811997116 -36.21090513677404 1 0 0
3616 669 4 -1.1128 3.907893194235667 19.127132731495113 -32.34583178898349 1 -1 0
3613 669 2 0 3.831169122342551 19.242421303084125 -32.41455676299661 1 -1 0
1276 84 4 -1.1128 6.530414589923915 15.663182668017786 -33.74920747029933 0 0 0
1224 71 4 -1.1128 3.1185423866168844 0.023414616777071726 -27.045461274650577 0 0 0
1173 59 2 0 5.597880786361858 18.72290185626808 -27.220610710552556 0 0 0
1222 71 3 0.5564 2.9872862199984196 19.588343386446986 -26.201172617709943 0 -1 0
994 14 3 0.5564 4.532831388647937 14.419424094687637 -36.0436078657814 0 0 0
1051 28 3 0.5564 7.608414294419519 10.76625454440195 -36.55541266360185 0 0 0